Title
32267
    1POPC     N    1   2.181   2.327   6.328  0.4247  0.0588 -0.7101
    1POPC   C12    2   2.219   2.367   6.192 -0.0815  0.5930 -0.3311
    1POPC  H12A    3   2.131   2.349   6.133 -0.5300 -1.1450  0.7750
    1POPC  H12B    4   2.284   2.289   6.156 -0.4267 -0.7588  1.7778
    1POPC   C13    5   2.120   2.190   6.325  0.5612  0.1447  0.4964
    1POPC  H13A    6   2.197   2.118   6.303  0.1174 -0.5609  1.1788
    1POPC  H13B    7   2.074   2.174   6.422 -0.1882 -1.1928 -0.0636
    1POPC  H13C    8   2.047   2.187   6.246 -1.9587 -1.3349  2.7015
    1POPC   C14    9   2.297   2.328   6.429  0.1455 -0.6095  0.6627
    1POPC  H14A   10   2.377   2.267   6.389  0.5278 -0.1045  0.6525
    1POPC  H14B   11   2.338   2.427   6.437  2.5380 -1.5705  1.0626
    1POPC  H14C   12   2.269   2.305   6.530 -1.9229 -1.1694  0.0221
    1POPC   C15   13   2.077   2.421   6.379 -0.7335 -0.3511 -0.0964
    1POPC  H15A   14   2.063   2.416   6.486  1.7688 -0.7562  0.2828
    1POPC  H15B   15   1.980   2.419   6.332 -1.2637 -2.9340  0.9318
    1POPC  H15C   16   2.114   2.523   6.370 -0.9632 -0.0477  1.8267
    1POPC   C11   17   2.290   2.495   6.157  0.2658  0.7731 -0.2511
    1POPC  H11A   18   2.311   2.508   6.049 -0.2322 -0.6354 -0.5361
    1POPC  H11B   19   2.389   2.482   6.205  0.4888  0.1521 -0.8572
    1POPC     P   20   2.297   2.718   6.277  0.0529 -0.4636  0.0894
    1POPC   O13   21   2.394   2.660   6.375 -0.5848 -0.9345  0.3983
    1POPC   O14   22   2.198   2.821   6.320 -0.4678 -0.8678  0.2595
    1POPC   O12   23   2.219   2.612   6.198  0.5039  0.0276 -0.4200
    1POPC   O11   24   2.378   2.787   6.158 -0.2783 -0.5341 -0.3736
    1POPC    C1   25   2.326   2.846   6.040 -0.4255 -0.1819 -0.3033
    1POPC    HA   26   2.255   2.927   6.067 -0.6315 -0.4366 -0.0810
    1POPC    HB   27   2.266   2.775   5.979  0.5029 -1.5165  0.2768
    1POPC    C2   28   2.443   2.896   5.949  0.3510  0.4034 -0.0950
    1POPC    HS   29   2.503   2.973   6.002  0.5399  1.7846 -2.1669
    1POPC   O21   30   2.395   2.936   5.817  0.0759  0.6009  0.8675
    1POPC   C21   31   2.450   3.048   5.779  0.6740  0.1764  0.2328
    1POPC   O22   32   2.532   3.111   5.838 -0.1053 -0.0568  0.0765
    1POPC   C22   33   2.377   3.085   5.650  0.8222 -0.0746  0.1978
    1POPC   H2R   34   2.397   3.192   5.625  0.8950 -0.6627 -2.6349
    1POPC   H2S   35   2.268   3.067   5.661  0.9537 -1.5070 -0.6787
    1POPC    C3   36   2.534   2.774   5.922  0.6544  0.2803  0.2907
    1POPC    HX   37   2.468   2.690   5.891 -2.2255  2.4475  0.1270
    1POPC    HY   38   2.568   2.749   6.025 -2.4196  0.4249  1.4407
    1POPC   O31   39   2.635   2.785   5.826 -0.3114  0.3796  0.4403
    1POPC   C31   40   2.747   2.846   5.859 -0.0229 -0.3340 -0.2593
    1POPC   O32   41   2.770   2.917   5.955  0.4073 -0.3776 -0.2988
    1POPC   C32   42   2.849   2.814   5.745 -0.3476  0.0941  0.2398
    1POPC   H2X   43   2.791   2.828   5.652  0.7029 -0.9270 -0.5838
    1POPC   H2Y   44   2.873   2.706   5.753 -3.7899 -0.8692 -0.9587
    1POPC   C23   45   2.424   3.008   5.529  0.2091 -0.3276  0.4819
    1POPC   H3R   46   2.344   3.023   5.452  0.7832  1.8936  0.2444
    1POPC   H3S   47   2.430   2.899   5.551  0.0699 -0.5546 -0.5146
    1POPC   C24   48   2.549   3.063   5.478 -0.0647 -0.3427  0.4496
    1POPC   H4R   49   2.637   2.996   5.490 -0.2238 -0.6389 -0.0356
    1POPC   H4S   50   2.588   3.154   5.529  0.8428 -0.0299 -0.7481
    1POPC   C25   51   2.546   3.096   5.329  0.6081  0.7949 -0.3771
    1POPC   H5R   52   2.456   3.157   5.304  0.8124  1.7220  1.0380
    1POPC   H5S   53   2.528   3.000   5.277  3.8987  1.2905 -2.7243
    1POPC   C26   54   2.665   3.166   5.270 -0.4336 -0.3675  0.0115
    1POPC   H6R   55   2.761   3.112   5.281 -1.2669 -1.9776 -0.3688
    1POPC   H6S   56   2.677   3.262   5.326 -3.9344 -0.9213  2.0096
    1POPC   C27   57   2.648   3.186   5.122  0.6689 -0.1915 -0.7981
    1POPC   H7R   58   2.545   3.155   5.093  0.3719  0.1057 -0.0979
    1POPC   H7S   59   2.709   3.111   5.069  0.5645 -0.4168 -0.6041
    1POPC   C28   60   2.675   3.339   5.080 -0.3447 -0.1566 -0.4766
    1POPC   H8R   61   2.763   3.365   5.143 -2.5317  2.5183  1.7227
    1POPC   H8S   62   2.594   3.406   5.115 -0.0364  0.9647 -1.8448
    1POPC   C29   63   2.696   3.340   4.929  0.0082  0.5359 -0.3263
    1POPC   H91   64   2.795   3.295   4.911  0.1400  0.0139  1.4292
    1POPC  C210   65   2.610   3.377   4.828 -0.6660 -0.6256 -0.7144
    1POPC  H101   66   2.628   3.338   4.727 -2.3712 -1.9417 -0.5491
    1POPC  C211   67   2.463   3.419   4.842 -0.1587 -0.7177  0.0433
    1POPC  H11R   68   2.417   3.440   4.942 -1.3490  2.4976 -1.0390
    1POPC  H11S   69   2.397   3.340   4.800  0.4974 -0.3118 -1.8344
    1POPC  C212   70   2.434   3.545   4.754  0.2040 -0.0955 -0.5272
    1POPC  H12R   71   2.468   3.535   4.648 -0.3542  2.7758 -1.0528
    1POPC  H12S   72   2.490   3.633   4.790 -0.1913  0.2075 -0.6467
    1POPC  C213   73   2.285   3.581   4.749 -0.4893  0.4926 -0.0834
    1POPC  H13R   74   2.258   3.611   4.853 -2.0700  1.3828 -0.7200
    1POPC  H13S   75   2.222   3.491   4.734  1.0146 -0.7099  0.5718
    1POPC  C214   76   2.252   3.687   4.647  0.1138  0.0598  0.6738
    1POPC  H14R   77   2.291   3.649   4.551 -0.9523 -0.8783  0.5827
    1POPC  H14S   78   2.290   3.786   4.682  2.2219 -0.0681 -1.1012
    1POPC  C215   79   2.101   3.708   4.628 -0.2362 -0.0756  0.1178
    1POPC  H15R   80   2.061   3.733   4.729  2.6975 -1.1441  1.6542
    1POPC  H15S   81   2.052   3.615   4.591 -3.0681 -0.1384  3.5214
    1POPC  C216   82   2.059   3.832   4.551 -0.1367  0.2097 -0.2144
    1POPC  H16R   83   2.090   3.819   4.445  0.2407 -2.0284  0.1105
    1POPC  H16S   84   2.111   3.919   4.598  0.2773 -1.0024  1.7139
    1POPC  C217   85   1.907   3.843   4.547 -0.4249  0.1315 -0.2556
    1POPC  H17R   86   1.871   3.835   4.651  0.5030  2.6031  0.3089
    1POPC  H17S   87   1.866   3.761   4.483  0.6041  0.1283 -0.9367
    1POPC  C218   88   1.851   3.971   4.482  0.1083  0.5174 -0.5364
    1POPC  H18R   89   1.909   4.007   4.394  0.2268  1.1026 -0.2259
    1POPC  H18S   90   1.865   4.049   4.560 -2.4006  0.1110  0.4222
    1POPC  H18T   91   1.741   3.978   4.469  0.0638 -2.4421 -2.5410
    1POPC   C33   92   2.973   2.906   5.749  0.1281 -0.4352 -0.5768
    1POPC   H3X   93   3.046   2.888   5.831  1.9587  3.6303 -1.0652
    1POPC   H3Y   94   2.946   3.011   5.774 -1.3734 -0.2792 -2.6269
    1POPC   C34   95   3.043   2.919   5.613  0.1716 -0.3518  0.5356
    1POPC   H4X   96   3.032   2.817   5.570 -0.8419 -1.5726  3.4228
    1POPC   H4Y   97   3.148   2.938   5.644  0.0824 -1.0072  1.2742
    1POPC   C35   98   2.993   3.037   5.521  0.2061  0.1446  0.0515
    1POPC   H5X   99   3.015   3.135   5.568 -0.9118  1.1778 -1.4939
    1POPC   H5Y  100   2.886   3.033   5.493 -0.3304  0.1378  1.9212
    1POPC   C36  101   3.059   3.012   5.383 -0.2581 -0.1305 -0.3915
    1POPC   H6X  102   2.999   2.942   5.322 -1.2863 -0.2276  0.6817
    1POPC   H6Y  103   3.161   2.972   5.400  0.1663 -0.0811 -2.5870
    1POPC   C37  104   3.080   3.149   5.317  0.3217 -0.0733  0.3863
    1POPC   H7X  105   3.129   3.216   5.391 -1.9363  1.8001  0.3057
    1POPC   H7Y  106   2.980   3.194   5.298 -0.3185 -0.7300  1.9957
    1POPC   C38  107   3.153   3.132   5.184  0.2042  0.9051  0.0497
    1POPC   H8X  108   3.086   3.072   5.120  0.1446  0.1513  0.8053
    1POPC   H8Y  109   3.248   3.076   5.201 -1.0419 -1.1054  0.7214
    1POPC   C39  110   3.183   3.263   5.101  0.7189  0.0207 -0.4709
    1POPC   H9X  111   3.090   3.323   5.090  0.9761  0.2688 -1.2982
    1POPC   H9Y  112   3.211   3.232   4.998 -0.5352  4.3556 -2.3518
    1POPC  C310  113   3.296   3.342   5.163  0.6048 -0.0212 -0.6103
    1POPC  H10X  114   3.387   3.281   5.184  0.0342  0.2557  3.4916
    1POPC  H10Y  115   3.267   3.366   5.267 -2.7510  2.1804 -1.9112
    1POPC  C311  116   3.314   3.478   5.090  0.1448 -0.0030  0.5342
    1POPC  H11X  117   3.381   3.542   5.150  0.1462  0.6369 -0.1347
    1POPC  H11Y  118   3.210   3.517   5.087 -0.0847 -0.5737  0.9949
    1POPC  C312  119   3.364   3.452   4.947  0.2289  0.3296 -0.8934
    1POPC  H12X  120   3.295   3.389   4.886  0.9823 -0.4658 -0.9433
    1POPC  H12Y  121   3.454   3.387   4.937 -0.5029 -0.7242 -0.7719
    1POPC  C313  122   3.381   3.591   4.878 -0.1668 -0.2990  0.0283
    1POPC  H13X  123   3.414   3.671   4.948 -0.5547 -0.7959  0.7910
    1POPC  H13Y  124   3.278   3.625   4.853  0.7247  4.3031  1.5381
    1POPC  C314  125   3.470   3.591   4.751 -0.3378  0.1659  0.5218
    1POPC  H14X  126   3.561   3.529   4.768 -2.1866 -2.1559  2.8784
    1POPC  H14Y  127   3.501   3.694   4.722 -0.2578  0.1099  0.4043
    1POPC  C315  128   3.390   3.532   4.627  0.2086  0.6577 -0.0638
    1POPC  H15X  129   3.292   3.584   4.619 -0.7541 -0.8731  0.9976
    1POPC  H15Y  130   3.353   3.434   4.664 -1.4107  0.8597 -1.0326
    1POPC  C316  131   3.459   3.496   4.499 -0.1902 -1.1427  0.5227
    1POPC  H16X  132   3.391   3.503   4.412  0.5424 -0.7744 -0.0320
    1POPC  H16Y  133   3.498   3.392   4.495  0.1786 -0.9635 -1.1027
    1POPC  H16Z  134   3.547   3.561   4.481  0.4356 -1.6108  1.7398
    2POPC     N  135   3.889   3.618   6.279  0.3829  0.3344 -0.0394
    2POPC   C12  136   3.824   3.546   6.163 -0.1881  0.3632 -1.4885
    2POPC  H12A  137   3.757   3.470   6.200  0.5508  1.3710  2.3417
    2POPC  H12B  138   3.898   3.484   6.115  2.7283  0.5271  2.3235
    2POPC   C13  139   3.954   3.517   6.374  0.5788  0.4759  0.3181
    2POPC  H13A  140   3.969   3.563   6.471  0.7439  0.6262  0.2220
    2POPC  H13B  141   3.890   3.431   6.375 -1.5889  1.9480 -1.2966
    2POPC  H13C  142   4.051   3.488   6.337  0.0432 -0.5160 -0.3592
    2POPC   C14  143   3.989   3.722   6.234 -0.0875 -1.0930 -0.1434
    2POPC  H14A  144   4.034   3.772   6.319  0.9942  0.5124 -1.5927
    2POPC  H14B  145   4.076   3.678   6.187 -0.2713 -0.6352 -0.9276
    2POPC  H14C  146   3.947   3.794   6.165  0.4772 -0.4059  0.2134
    2POPC   C15  147   3.789   3.686   6.359 -0.3432 -0.5774 -0.6403
    2POPC  H15A  148   3.838   3.723   6.448 -0.8886  0.0865 -0.6121
    2POPC  H15B  149   3.713   3.623   6.401 -0.1485 -0.1230  0.4223
    2POPC  H15C  150   3.741   3.761   6.298  0.0892 -0.6690 -1.1050
    2POPC   C11  151   3.749   3.627   6.057  0.4986 -0.5076 -0.6394
    2POPC  H11A  152   3.719   3.559   5.974  4.2552 -0.1101 -2.5231
    2POPC  H11B  153   3.816   3.707   6.018  1.0212 -1.2384 -1.2435
    2POPC     P  154   3.491   3.617   6.106  0.4752  0.2065 -0.4995
    2POPC   O13  155   3.388   3.690   6.181 -0.6223 -0.1234  0.5556
    2POPC   O14  156   3.509   3.477   6.138  0.2911 -0.3336 -0.1771
    2POPC   O12  157   3.635   3.689   6.111  0.5143 -0.1359 -0.1668
    2POPC   O11  158   3.465   3.620   5.958  0.1680  0.0660 -0.0728
    2POPC    C1  159   3.399   3.514   5.887 -0.7132  0.1414 -0.3722
    2POPC    HA  160   3.295   3.519   5.923 -0.1550  0.6640  1.2697
    2POPC    HB  161   3.445   3.416   5.913  1.6733  0.6985 -2.0948
    2POPC    C2  162   3.417   3.533   5.730  0.5465 -0.5578 -0.4558
    2POPC    HS  163   3.367   3.445   5.684  2.0238 -0.6960 -1.8806
    2POPC   O21  164   3.555   3.534   5.693 -0.5558 -0.0564  0.2247
    2POPC   C21  165   3.608   3.418   5.653  0.3304  0.2579  0.6592
    2POPC   O22  166   3.545   3.320   5.624  0.0095  0.2471 -0.2943
    2POPC   C22  167   3.759   3.432   5.645  0.4236 -0.5634 -0.2143
    2POPC   H2R  168   3.787   3.530   5.690 -2.1100  0.3108 -0.3747
    2POPC   H2S  169   3.795   3.423   5.541  0.4915 -3.8855 -0.0104
    2POPC    C3  170   3.343   3.663   5.691  0.3644 -0.3861 -0.3103
    2POPC    HX  171   3.387   3.739   5.759 -0.3393 -1.2424  1.1560
    2POPC    HY  172   3.237   3.651   5.722  0.8448  0.8680  1.9723
    2POPC   O31  173   3.358   3.697   5.557  0.4773 -0.2154  0.0830
    2POPC   C31  174   3.384   3.820   5.535  0.7463  0.2033 -0.7231
    2POPC   O32  175   3.391   3.905   5.619  0.2239 -0.4034  0.0886
    2POPC   C32  176   3.410   3.838   5.393  0.4412  0.0072  0.0057
    2POPC   H2X  177   3.324   3.801   5.333  0.9251 -0.4126 -0.4428
    2POPC   H2Y  178   3.488   3.766   5.360  0.1061 -1.7734  2.7695
    2POPC   C23  179   3.825   3.325   5.738  0.6214 -0.4276  1.0898
    2POPC   H3R  180   3.771   3.317   5.834 -0.9067 -0.4202  0.2687
    2POPC   H3S  181   3.917   3.380   5.765 -0.1198  1.2246  0.3753
    2POPC   C24  182   3.857   3.191   5.669  1.2431 -0.3098 -0.0445
    2POPC   H4R  183   3.900   3.211   5.568  2.8152  0.9155  0.8282
    2POPC   H4S  184   3.758   3.144   5.651 -0.3120  2.3112  1.1521
    2POPC   C25  185   3.935   3.100   5.757  0.7432 -0.0944  0.5276
    2POPC   H5R  186   3.908   3.112   5.865  1.4076  0.7748  0.6000
    2POPC   H5S  187   4.042   3.115   5.732  0.1478 -1.0324 -3.2540
    2POPC   C26  188   3.894   2.956   5.723  0.6783  0.4303 -0.0128
    2POPC   H6R  189   3.892   2.945   5.613 -0.0850 -1.7301  0.1605
    2POPC   H6S  190   3.795   2.919   5.758  0.8136  2.2729  2.6470
    2POPC   C27  191   3.991   2.861   5.788  0.2525  0.6632 -0.0996
    2POPC   H7R  192   4.002   2.873   5.898  0.6880  0.7251 -0.1465
    2POPC   H7S  193   4.089   2.886   5.742  1.2262  0.1188  1.5591
    2POPC   C28  194   3.966   2.705   5.761 -0.8247 -0.1833  0.0498
    2POPC   H8R  195   3.954   2.708   5.650 -0.8607  2.2098  0.0752
    2POPC   H8S  196   3.866   2.687   5.805 -0.6731  2.0622  1.4260
    2POPC   C29  197   4.077   2.614   5.813  0.3634  0.9198  0.5589
    2POPC   H91  198   4.045   2.560   5.904 -4.3574 -2.9370 -2.8234
    2POPC  C210  199   4.182   2.569   5.743  0.4882 -0.3736 -0.4327
    2POPC  H101  200   4.249   2.487   5.774  0.1907 -0.4374  0.0477
    2POPC  C211  201   4.223   2.631   5.604 -0.3228  0.8926 -0.6650
    2POPC  H11R  202   4.172   2.726   5.577 -0.4168  0.4715 -2.0711
    2POPC  H11S  203   4.201   2.552   5.529  2.8712 -1.1642  0.3906
    2POPC  C212  204   4.372   2.654   5.593 -0.5602 -0.2633  0.8583
    2POPC  H12R  205   4.419   2.555   5.610  0.4228 -0.1688 -1.0104
    2POPC  H12S  206   4.410   2.734   5.659 -0.7287  0.9020 -0.4166
    2POPC  C213  207   4.413   2.690   5.445  0.8896 -0.0701 -0.3680
    2POPC  H13R  208   4.332   2.642   5.387  1.8278 -2.1967  0.0019
    2POPC  H13S  209   4.515   2.653   5.422  1.5983  1.3407  0.3572
    2POPC  C214  210   4.425   2.843   5.415  0.2053  1.0745  0.1571
    2POPC  H14R  211   4.509   2.874   5.480 -0.5664  1.4783  0.9812
    2POPC  H14S  212   4.337   2.896   5.458 -0.9159 -1.2967  1.0088
    2POPC  C215  213   4.445   2.878   5.274 -0.1482 -0.0687  0.3096
    2POPC  H15R  214   4.341   2.866   5.235  0.4516 -2.1423 -0.7620
    2POPC  H15S  215   4.520   2.814   5.223  0.1551 -1.4956  2.4041
    2POPC  C216  216   4.474   3.024   5.262 -0.0590 -0.6392  0.0848
    2POPC  H16R  217   4.574   3.048   5.304 -0.3011 -1.3273  1.0918
    2POPC  H16S  218   4.400   3.077   5.324  0.6966  1.6235 -0.8357
    2POPC  C217  219   4.474   3.068   5.114  0.1738  0.1162 -0.8943
    2POPC  H17R  220   4.371   3.048   5.078 -1.1305  1.3836  1.8424
    2POPC  H17S  221   4.546   2.996   5.070 -0.2559 -0.8446 -0.0517
    2POPC  C218  222   4.509   3.214   5.090  0.9029  0.1006  0.0104
    2POPC  H18R  223   4.483   3.235   4.984 -0.6238 -2.0260 -0.0956
    2POPC  H18S  224   4.607   3.250   5.126  0.1361  1.6637  0.6287
    2POPC  H18T  225   4.446   3.283   5.150  2.8461  0.0918  2.1716
    2POPC   C33  226   3.447   3.984   5.343  0.7488  0.4612  0.0529
    2POPC   H3X  227   3.526   4.025   5.408  0.9615 -3.4778  2.6065
    2POPC   H3Y  228   3.354   4.042   5.361 -1.2048 -2.1093 -1.0483
    2POPC   C34  229   3.461   4.005   5.199  0.1450 -0.4075  0.5055
    2POPC   H4X  230   3.486   4.109   5.171  0.2362 -0.8543 -1.1702
    2POPC   H4Y  231   3.361   3.985   5.154  0.0504  1.4943 -0.1871
    2POPC   C35  232   3.566   3.928   5.121 -0.0454  0.9201 -0.1698
    2POPC   H5X  233   3.543   3.820   5.122  0.6131  0.7523 -1.5267
    2POPC   H5Y  234   3.664   3.934   5.172 -0.2467 -1.7945  0.6415
    2POPC   C36  235   3.576   3.972   4.980 -0.2981  0.7384  0.9138
    2POPC   H6X  236   3.577   4.082   4.969 -1.8487  0.6651 -0.2833
    2POPC   H6Y  237   3.490   3.942   4.915  0.5690 -0.8439  0.4423
    2POPC   C37  238   3.705   3.924   4.913  0.1935  0.1364 -0.3321
    2POPC   H7X  239   3.712   3.813   4.911 -3.1639 -0.1687 -0.4292
    2POPC   H7Y  240   3.790   3.971   4.967  1.6895  0.4883 -2.8055
    2POPC   C38  241   3.715   3.959   4.764  0.4629 -0.1351  0.2517
    2POPC   H8X  242   3.703   4.067   4.741 -1.3708  0.1319  2.1695
    2POPC   H8Y  243   3.644   3.907   4.696  1.2203  0.4219 -1.0010
    2POPC   C39  244   3.847   3.921   4.698  0.2681  0.2316  0.4978
    2POPC   H9X  245   3.862   3.812   4.712  0.4899  0.2686  0.5482
    2POPC   H9Y  246   3.925   3.983   4.746 -1.0093  1.3347  1.2372
    2POPC  C310  247   3.841   3.963   4.545  0.0654  0.0675  0.2538
    2POPC  H10X  248   3.942   3.992   4.509 -0.0346 -0.7837 -0.7841
    2POPC  H10Y  249   3.781   4.054   4.526  2.1683  1.5273  0.2122
    2POPC  C311  250   3.797   3.843   4.461  0.2547 -0.2201 -0.0897
    2POPC  H11X  251   3.688   3.823   4.468 -0.2232  1.8352 -0.8760
    2POPC  H11Y  252   3.842   3.751   4.502  0.6416 -1.1577 -2.4696
    2POPC  C312  253   3.834   3.872   4.310 -0.6827  0.3701  0.2910
    2POPC  H12X  254   3.845   3.770   4.266  0.4572  0.2981  0.7164
    2POPC  H12Y  255   3.932   3.922   4.299 -1.3769  1.6411 -0.3328
    2POPC  C313  256   3.734   3.953   4.239  0.3383  0.4130 -0.1840
    2POPC  H13X  257   3.699   4.035   4.305  0.9750  0.4218  0.1438
    2POPC  H13Y  258   3.649   3.882   4.229  1.3650 -0.9639  0.5410
    2POPC  C314  259   3.773   4.018   4.104 -0.2123 -0.1954 -0.0470
    2POPC  H14X  260   3.804   3.944   4.027  0.5616 -1.2368  1.2083
    2POPC  H14Y  261   3.859   4.081   4.134  0.6680 -0.9763 -0.8757
    2POPC  C315  262   3.656   4.103   4.050 -0.0350 -0.0335  0.1556
    2POPC  H15X  263   3.614   4.162   4.134  1.5769  0.2845  0.7808
    2POPC  H15Y  264   3.575   4.032   4.022  0.0464 -0.0922  0.0639
    2POPC  C316  265   3.681   4.190   3.933 -0.3873 -0.7642 -0.5103
    2POPC  H16X  266   3.584   4.236   3.905 -1.7367 -2.2862  1.3569
    2POPC  H16Y  267   3.715   4.133   3.844 -0.6826  2.2896 -2.7651
    2POPC  H16Z  268   3.751   4.272   3.959 -0.5295  0.1339 -2.7086
    3POPC     N  269   3.618   2.933   6.359  0.3545 -0.4349  1.0210
    3POPC   C12  270   3.574   2.889   6.217  0.3225  0.1469 -0.4985
    3POPC  H12A  271   3.574   2.980   6.159  0.1321 -0.9260 -2.2400
    3POPC  H12B  272   3.477   2.844   6.232  1.1341 -1.9563 -1.2942
    3POPC   C13  273   3.587   2.814   6.458  0.4397 -0.1381 -0.2318
    3POPC  H13A  274   3.607   2.720   6.409  2.6152  0.5370 -0.7670
    3POPC  H13B  275   3.645   2.814   6.550 -1.8331  0.0100  1.2689
    3POPC  H13C  276   3.485   2.809   6.493  0.5571 -1.3667 -0.0372
    3POPC   C14  277   3.760   2.969   6.364 -0.3009  0.0393 -0.2704
    3POPC  H14A  278   3.792   3.000   6.463 -2.1407 -0.8947  0.6857
    3POPC  H14B  279   3.813   2.878   6.340 -0.3235 -0.8967  2.7582
    3POPC  H14C  280   3.782   3.032   6.280  0.0396  0.8802  0.4308
    3POPC   C15  281   3.527   3.048   6.405 -0.1750  0.1271 -0.0665
    3POPC  H15A  282   3.544   3.132   6.338  1.9166  0.9709  1.4266
    3POPC  H15B  283   3.553   3.093   6.500 -0.7397  2.5292 -0.9714
    3POPC  H15C  284   3.424   3.017   6.400  0.8263 -3.4241 -1.6084
    3POPC   C11  285   3.666   2.795   6.148  0.3816  0.1070  0.0006
    3POPC  H11A  286   3.760   2.850   6.125  0.5548  0.2778  1.0476
    3POPC  H11B  287   3.615   2.771   6.053 -1.9657 -0.0045  1.2166
    3POPC     P  288   3.811   2.587   6.166  0.0158 -0.0087  0.1987
    3POPC   O13  289   3.818   2.471   6.256 -0.2066  0.6320 -0.4132
    3POPC   O14  290   3.942   2.666   6.158  0.0807 -0.6941 -0.7479
    3POPC   O12  291   3.697   2.680   6.222 -0.0220 -0.4824  0.6239
    3POPC   O11  292   3.768   2.539   6.018 -0.0688 -0.5292  0.2912
    3POPC    C1  293   3.640   2.483   6.000  0.0716  0.7148  0.6434
    3POPC    HA  294   3.565   2.565   5.994  0.3457  0.8582 -2.2669
    3POPC    HB  295   3.613   2.415   6.083 -2.5268  2.2259  1.1582
    3POPC    C2  296   3.640   2.395   5.868 -0.4732  0.3219 -0.2151
    3POPC    HS  297   3.727   2.327   5.879  0.6917  1.8750  0.6981
    3POPC   O21  298   3.655   2.485   5.754 -0.1011  0.3501  0.0248
    3POPC   C21  299   3.707   2.416   5.649  0.0627  0.3203  0.5014
    3POPC   O22  300   3.718   2.298   5.648 -0.5197 -0.2243 -0.1289
    3POPC   C22  301   3.736   2.509   5.530 -0.3525 -0.4251  0.1357
    3POPC   H2R  302   3.758   2.610   5.568 -2.0332  0.0002  0.0611
    3POPC   H2S  303   3.640   2.523   5.475 -0.2413  1.1942  0.3058
    3POPC    C3  304   3.511   2.307   5.867 -0.2859 -0.5590 -0.4045
    3POPC    HX  305   3.467   2.312   5.969  1.7921 -1.7008  0.6191
    3POPC    HY  306   3.545   2.202   5.860  2.7019  0.2828 -0.1978
    3POPC   O31  307   3.430   2.349   5.759  0.0508 -0.1056  0.1608
    3POPC   C31  308   3.349   2.442   5.788 -0.6382 -0.4642 -0.9394
    3POPC   O32  309   3.331   2.486   5.902  0.5074 -0.3586 -0.0513
    3POPC   C32  310   3.290   2.495   5.662  0.8516  0.1225 -0.9351
    3POPC   H2X  311   3.187   2.457   5.645  0.3151  1.4557 -0.7897
    3POPC   H2Y  312   3.353   2.454   5.581 -0.7567 -1.5206 -1.4175
    3POPC   C23  313   3.856   2.469   5.436  0.6983  0.0919 -0.4832
    3POPC   H3R  314   3.844   2.369   5.388  0.6022 -0.3308  0.4061
    3POPC   H3S  315   3.941   2.440   5.503 -0.3480  0.8301  1.2158
    3POPC   C24  316   3.894   2.582   5.343  0.0932 -0.4381 -0.2638
    3POPC   H4R  317   3.997   2.556   5.309  0.5197 -1.0364  1.3766
    3POPC   H4S  318   3.908   2.680   5.393  1.2228 -0.5522 -0.3198
    3POPC   C25  319   3.795   2.605   5.224  0.6687  0.6742 -0.1869
    3POPC   H5R  320   3.793   2.712   5.193 -1.6917  0.7404  0.0177
    3POPC   H5S  321   3.692   2.590   5.261  1.3726 -1.4325  1.1210
    3POPC   C26  322   3.829   2.513   5.107  0.2352  0.1173 -1.3769
    3POPC   H6R  323   3.852   2.416   5.157  1.8110  0.8034 -0.7127
    3POPC   H6S  324   3.924   2.545   5.059  1.4765 -0.7153  0.4164
    3POPC   C27  325   3.720   2.476   5.007  1.0130  0.4223 -0.2155
    3POPC   H7R  326   3.701   2.561   4.939  1.4295  0.6062 -0.0988
    3POPC   H7S  327   3.626   2.471   5.067  0.3770  1.0302 -1.1313
    3POPC   C28  328   3.740   2.346   4.921 -1.1076  0.3876  0.3676
    3POPC   H8R  329   3.776   2.266   4.989  1.2541 -0.2646 -1.5145
    3POPC   H8S  330   3.826   2.364   4.853 -0.4238 -0.2434  1.0525
    3POPC   C29  331   3.605   2.308   4.859  0.0878  0.1036 -0.2591
    3POPC   H91  332   3.565   2.382   4.788 -0.9637 -0.5592 -0.3906
    3POPC  C210  333   3.531   2.197   4.886 -0.2647 -0.3797 -0.0809
    3POPC  H101  334   3.441   2.180   4.826  0.8177 -0.2603 -1.7901
    3POPC  C211  335   3.583   2.097   4.978  0.4908 -0.1414  0.6094
    3POPC  H11R  336   3.601   2.133   5.082 -0.4787 -0.0458  0.7539
    3POPC  H11S  337   3.679   2.077   4.926  0.0303  2.1783 -1.3070
    3POPC  C212  338   3.497   1.974   4.974  0.0232 -0.2390  0.2147
    3POPC  H12R  339   3.548   1.906   5.045  0.3467  1.1558  1.3719
    3POPC  H12S  340   3.492   1.931   4.872  1.4338 -2.2754  0.9444
    3POPC  C213  341   3.358   1.997   5.017 -0.3086 -1.0528 -0.6784
    3POPC  H13R  342   3.303   2.063   4.946  0.3279  0.9758  0.6393
    3POPC  H13S  343   3.364   2.065   5.104  2.5259 -0.2255 -1.4377
    3POPC  C214  344   3.264   1.877   5.038  0.6345  0.3459 -0.3329
    3POPC  H14R  345   3.295   1.811   4.955 -1.5510  1.0141 -1.7717
    3POPC  H14S  346   3.161   1.907   5.011  1.3382  0.9911 -2.4672
    3POPC  C215  347   3.273   1.801   5.171  0.1139 -0.0046 -0.0126
    3POPC  H15R  348   3.249   1.879   5.247 -1.1852  0.0488 -0.4514
    3POPC  H15S  349   3.378   1.768   5.185  0.1362 -0.3782 -1.0034
    3POPC  C216  350   3.180   1.690   5.186  0.3396  0.8945  0.4618
    3POPC  H16R  351   3.187   1.613   5.106 -0.0020 -0.0749  1.3351
    3POPC  H16S  352   3.076   1.728   5.173  0.1067 -0.3229 -1.6106
    3POPC  C217  353   3.180   1.617   5.321 -0.3309  0.6973  0.6251
    3POPC  H17R  354   3.094   1.648   5.384 -0.2993  0.7242  0.6551
    3POPC  H17S  355   3.265   1.654   5.382 -0.3433  1.1402  0.3815
    3POPC  C218  356   3.183   1.465   5.304 -0.5385  0.6384 -0.1224
    3POPC  H18R  357   3.116   1.427   5.223 -0.8805  0.0863  0.4146
    3POPC  H18S  358   3.156   1.400   5.390 -1.5163  1.3299  0.1103
    3POPC  H18T  359   3.284   1.434   5.270 -0.7179 -0.8434  0.5857
    3POPC   C33  360   3.282   2.646   5.651 -0.4958  0.1436 -0.2158
    3POPC   H3X  361   3.243   2.688   5.746  1.8248 -0.4306  1.0736
    3POPC   H3Y  362   3.202   2.669   5.578  0.2059  0.5696 -0.8638
    3POPC   C34  363   3.416   2.701   5.589  0.0527  0.9136 -0.0587
    3POPC   H4X  364   3.429   2.643   5.495  1.0779 -0.7177  1.0476
    3POPC   H4Y  365   3.498   2.685   5.662  0.8321 -2.9475 -1.5083
    3POPC   C35  366   3.410   2.853   5.572  0.6327  0.3541  0.4421
    3POPC   H5X  367   3.389   2.898   5.672  0.0582  2.7933 -0.7036
    3POPC   H5Y  368   3.320   2.869   5.509 -2.2195 -0.0647  4.0457
    3POPC   C36  369   3.538   2.894   5.493  0.4553  0.4063 -0.2227
    3POPC   H6X  370   3.556   2.833   5.402 -0.0796  0.8352 -0.6265
    3POPC   H6Y  371   3.622   2.885   5.565  0.0300  1.3633  0.4067
    3POPC   C37  372   3.521   3.040   5.440 -0.8341  0.2610 -0.6205
    3POPC   H7X  373   3.529   3.101   5.533 -0.2183 -0.3529 -0.2655
    3POPC   H7Y  374   3.420   3.064   5.400 -0.6144 -0.3228 -1.5705
    3POPC   C38  375   3.627   3.078   5.331  0.2194  0.0575  0.1480
    3POPC   H8X  376   3.729   3.074   5.375  0.6850 -3.8264 -0.8469
    3POPC   H8Y  377   3.605   3.178   5.288  0.7299 -0.7743 -2.1936
    3POPC   C39  378   3.617   2.993   5.203  0.0419  0.5937  0.0919
    3POPC   H9X  379   3.509   2.990   5.176 -0.2758  0.6723  1.3101
    3POPC   H9Y  380   3.668   2.895   5.211 -0.3591 -0.0890 -3.6588
    3POPC  C310  381   3.671   3.058   5.074  0.3445  0.9232  0.1549
    3POPC  H10X  382   3.769   3.110   5.088  1.1635  0.0215 -1.8428
    3POPC  H10Y  383   3.599   3.139   5.049 -0.2431  0.4900  0.4398
    3POPC  C311  384   3.669   2.954   4.963  0.2641  0.5761  0.2325
    3POPC  H11X  385   3.565   2.919   4.947 -0.2041  0.4761  2.9549
    3POPC  H11Y  386   3.720   2.866   5.007 -1.4282 -0.2637  0.6054
    3POPC  C312  387   3.735   3.006   4.842 -0.7027  0.2065  0.5763
    3POPC  H12X  388   3.843   3.027   4.856 -0.8348 -0.3253  2.7531
    3POPC  H12Y  389   3.685   3.102   4.816  2.8909  1.7644 -1.3557
    3POPC  C313  390   3.720   2.916   4.715  0.3858  0.3300 -0.3850
    3POPC  H13X  391   3.617   2.911   4.675 -0.7084 -1.8999  2.3529
    3POPC  H13Y  392   3.747   2.812   4.744 -2.0009 -0.1178  0.4016
    3POPC  C314  393   3.812   2.968   4.608  0.1737  0.6961  0.4917
    3POPC  H14X  394   3.908   2.967   4.663 -0.1418 -0.0178  1.0497
    3POPC  H14Y  395   3.792   3.070   4.571 -2.2546 -0.0779 -0.5566
    3POPC  C315  396   3.834   2.889   4.484 -0.7884 -0.6220  0.2270
    3POPC  H15X  397   3.873   2.785   4.491 -1.7397 -1.0742 -0.7630
    3POPC  H15Y  398   3.898   2.947   4.415 -1.2736 -0.3823 -0.0314
    3POPC  C316  399   3.706   2.875   4.397  0.4294  0.5922 -0.9329
    3POPC  H16X  400   3.640   2.807   4.456 -0.0195  0.0057 -2.0858
    3POPC  H16Y  401   3.740   2.835   4.300  1.5773 -2.1385  0.4840
    3POPC  H16Z  402   3.641   2.965   4.391 -3.5493 -1.8706  0.7650
    4POPC     N  403   2.988   3.450   6.221  0.4920  0.2010 -0.7766
    4POPC   C12  404   2.983   3.600   6.258  0.3606  1.1686 -0.4442
    4POPC  H12A  405   2.935   3.663   6.185  0.2032 -0.5843 -1.9387
    4POPC  H12B  406   3.083   3.635   6.276  0.4782  0.0940  1.2313
    4POPC   C13  407   3.102   3.432   6.127 -1.0852 -0.5016 -0.2967
    4POPC  H13A  408   3.107   3.509   6.052  1.2517 -1.9849 -1.8065
    4POPC  H13B  409   3.196   3.435   6.180 -0.6708 -1.0045 -0.9806
    4POPC  H13C  410   3.095   3.336   6.078 -0.9233 -1.3229  1.2221
    4POPC   C14  411   3.017   3.352   6.340 -0.6735 -0.2025 -0.0379
    4POPC  H14A  412   3.121   3.362   6.366 -0.2958 -1.3746 -0.9978
    4POPC  H14B  413   2.962   3.373   6.431  2.8728  1.9773  1.8019
    4POPC  H14C  414   3.025   3.246   6.317  1.7096 -0.8733  3.1829
    4POPC   C15  415   2.853   3.415   6.158 -1.0155  0.5355 -0.2430
    4POPC  H15A  416   2.816   3.481   6.082  0.6738  0.2288 -1.3990
    4POPC  H15B  417   2.783   3.407   6.240 -0.6921 -1.3271 -0.0886
    4POPC  H15C  418   2.861   3.314   6.119 -0.1358 -0.5994  2.5605
    4POPC   C11  419   2.912   3.629   6.393  0.1392 -0.7940  0.0398
    4POPC  H11A  420   2.942   3.734   6.417 -0.1210 -0.1620 -2.1695
    4POPC  H11B  421   2.949   3.555   6.467 -0.2483 -1.5274 -0.4843
    4POPC     P  422   2.685   3.718   6.291 -0.1009  0.2295  0.0801
    4POPC   O13  423   2.662   3.843   6.374  0.0065 -0.2816  0.1096
    4POPC   O14  424   2.567   3.651   6.238  0.0052 -0.1965 -0.1648
    4POPC   O12  425   2.772   3.615   6.378  0.4031  0.2692 -0.1325
    4POPC   O11  426   2.775   3.759   6.167 -0.1845  0.0842 -0.2096
    4POPC    C1  427   2.811   3.893   6.125 -0.3656  0.7822  0.7584
    4POPC    HA  428   2.899   3.877   6.061 -1.0793 -0.7891  0.1360
    4POPC    HB  429   2.846   3.952   6.212 -1.2329 -0.0523  1.7114
    4POPC    C2  430   2.705   3.972   6.048  0.2283 -0.0198  0.2807
    4POPC    HS  431   2.622   4.005   6.114 -0.5870  1.2971 -1.3250
    4POPC   O21  432   2.657   3.891   5.939  0.0910 -0.4792  0.0685
    4POPC   C21  433   2.525   3.900   5.913 -0.4617  0.1462  0.4408
    4POPC   O22  434   2.448   3.953   5.991 -0.1502  0.8530 -0.2432
    4POPC   C22  435   2.491   3.836   5.778  0.1201  0.5781  0.0646
    4POPC   H2R  436   2.380   3.830   5.784  0.1409  0.5870  0.5613
    4POPC   H2S  437   2.525   3.730   5.772 -0.8632  0.1675  1.3396
    4POPC    C3  438   2.763   4.111   5.996  0.7985 -0.0267 -0.3150
    4POPC    HX  439   2.781   4.176   6.084  1.9082 -0.0382 -0.5111
    4POPC    HY  440   2.688   4.157   5.928  1.0983  0.6518 -0.1929
    4POPC   O31  441   2.882   4.086   5.930 -0.1651 -0.2586  0.1390
    4POPC   C31  442   2.887   4.091   5.802 -0.2467  0.1869  0.7431
    4POPC   O32  443   2.795   4.129   5.729 -0.3114  0.1444 -0.1490
    4POPC   C32  444   3.020   4.033   5.761 -0.1653 -0.0685 -0.3007
    4POPC   H2X  445   3.078   4.011   5.853  0.3643 -0.3853 -0.7106
    4POPC   H2Y  446   3.085   4.103   5.704  2.1100 -2.0136 -0.2251
    4POPC   C23  447   2.537   3.926   5.670 -0.7366 -0.5657  0.2255
    4POPC   H3R  448   2.643   3.900   5.653 -0.4626  0.8716 -0.5033
    4POPC   H3S  449   2.540   4.032   5.705  2.5253 -0.2052 -0.8548
    4POPC   C24  450   2.468   3.913   5.534 -0.0764  0.6531  0.9094
    4POPC   H4R  451   2.395   3.997   5.527 -0.5933  0.3795  2.4734
    4POPC   H4S  452   2.400   3.825   5.535 -0.8555  1.1908  3.5406
    4POPC   C25  453   2.569   3.904   5.422 -0.7738 -0.1558  0.8452
    4POPC   H5R  454   2.653   3.840   5.456 -0.7694 -0.4235  0.3407
    4POPC   H5S  455   2.615   4.005   5.412  0.8194 -0.9107  0.0618
    4POPC   C26  456   2.520   3.851   5.286  0.2216  0.2191 -0.1926
    4POPC   H6R  457   2.434   3.916   5.259 -0.1288 -0.5241 -0.9274
    4POPC   H6S  458   2.473   3.750   5.288  1.5082 -0.4104 -0.4872
    4POPC   C27  459   2.625   3.854   5.172  0.5029  0.0463 -0.2682
    4POPC   H7R  460   2.710   3.787   5.198  0.4810  0.0729 -0.1228
    4POPC   H7S  461   2.669   3.954   5.156 -0.3777  0.2904 -1.2470
    4POPC   C28  462   2.575   3.789   5.043 -0.4202 -0.8009  0.1286
    4POPC   H8R  463   2.531   3.695   5.084  2.1700 -2.6640 -1.0489
    4POPC   H8S  464   2.662   3.760   4.980  1.5688  1.0293  1.8641
    4POPC   C29  465   2.466   3.861   4.971 -0.1477 -0.7813  0.1377
    4POPC   H91  466   2.367   3.858   5.021  0.1571  0.8902  0.9058
    4POPC  C210  467   2.476   3.927   4.853  0.0628  0.1480  0.0931
    4POPC  H101  468   2.383   3.972   4.817 -2.5024 -2.9846  2.1433
    4POPC  C211  469   2.598   3.937   4.770 -0.1243 -0.4684 -0.0775
    4POPC  H11R  470   2.592   3.872   4.681 -0.2705  0.6099 -0.8775
    4POPC  H11S  471   2.692   3.901   4.817  0.1486 -2.1993 -1.8295
    4POPC  C212  472   2.632   4.084   4.743 -0.0907  0.4954 -0.9998
    4POPC  H12R  473   2.623   4.146   4.834 -0.4922  0.4570 -1.0099
    4POPC  H12S  474   2.553   4.116   4.671 -0.4058 -1.7846 -1.7568
    4POPC  C213  475   2.772   4.103   4.687 -0.2322 -0.2829  0.1116
    4POPC  H13R  476   2.782   4.031   4.603 -0.7251 -2.3555  1.7463
    4POPC  H13S  477   2.843   4.086   4.770 -0.1977 -0.6208  0.0140
    4POPC  C214  478   2.803   4.248   4.642  0.0988  0.4040  0.0614
    4POPC  H14R  479   2.818   4.317   4.727  1.7783 -0.8014  0.8056
    4POPC  H14S  480   2.715   4.283   4.584  1.9928 -1.2704 -4.2772
    4POPC  C215  481   2.936   4.242   4.569  0.6356 -0.7856  0.1834
    4POPC  H15R  482   2.917   4.163   4.493 -0.4245  0.4810 -0.9206
    4POPC  H15S  483   3.007   4.194   4.639  0.0696 -0.0493  1.2985
    4POPC  C216  484   2.981   4.387   4.519 -0.2533  0.0761 -0.2780
    4POPC  H16R  485   3.016   4.449   4.605  1.2155 -2.3112  0.9580
    4POPC  H16S  486   2.884   4.429   4.487 -0.4860  0.0881  0.4302
    4POPC  C217  487   3.084   4.392   4.397  0.3061 -0.1193 -1.0267
    4POPC  H17R  488   3.085   4.494   4.354  1.4734  0.3615  0.0928
    4POPC  H17S  489   3.031   4.320   4.331 -1.0916  0.2637 -0.3641
    4POPC  C218  490   3.230   4.358   4.430 -0.8533  0.3004 -0.2089
    4POPC  H18R  491   3.264   4.429   4.509 -0.4161 -2.1041  1.9164
    4POPC  H18S  492   3.295   4.371   4.341  1.4881 -0.0691  1.3586
    4POPC  H18T  493   3.239   4.254   4.470 -0.7151 -0.1844 -1.4518
    4POPC   C33  494   3.014   3.898   5.689 -0.4348  0.3780 -0.1121
    4POPC   H3X  495   2.930   3.840   5.731  0.2154  0.9138  2.0439
    4POPC   H3Y  496   3.107   3.837   5.700 -0.5980  0.3569  1.2811
    4POPC   C34  497   3.003   3.923   5.535  0.1456 -0.6611  0.1379
    4POPC   H4X  498   3.099   3.974   5.516 -0.6372  1.4907  1.5728
    4POPC   H4Y  499   2.919   3.989   5.505 -0.2473 -2.0313 -1.9692
    4POPC   C35  500   2.985   3.793   5.457 -0.3305  0.1860  0.6177
    4POPC   H5X  501   2.882   3.758   5.480 -0.7485  0.6472 -0.4476
    4POPC   H5Y  502   3.063   3.724   5.494  0.8959  0.2098 -1.7292
    4POPC   C36  503   2.996   3.821   5.306  0.1513  0.4600 -0.3998
    4POPC   H6X  504   3.087   3.883   5.287  0.3866  0.0061 -0.7770
    4POPC   H6Y  505   2.909   3.882   5.275 -0.8400 -1.4764 -1.6304
    4POPC   C37  506   2.997   3.703   5.210 -0.0377  0.4537 -0.0051
    4POPC   H7X  507   2.903   3.647   5.227 -1.1935  2.2629 -0.1875
    4POPC   H7Y  508   3.083   3.633   5.222 -0.0239  0.2817 -1.0041
    4POPC   C38  509   2.974   3.757   5.068 -0.1547 -0.1440  0.3447
    4POPC   H8X  510   2.891   3.830   5.066  1.8230  2.2199  0.7832
    4POPC   H8Y  511   2.945   3.669   5.006 -0.2946  1.0254 -1.2758
    4POPC   C39  512   3.108   3.808   5.000 -0.2590  0.2687 -0.3923
    4POPC   H9X  513   3.180   3.725   5.014 -3.1550 -2.2177  1.1897
    4POPC   H9Y  514   3.132   3.905   5.048 -1.8281  0.8078 -0.6228
    4POPC  C310  515   3.081   3.839   4.846  0.1616  0.2818 -0.6810
    4POPC  H10X  516   3.005   3.920   4.842 -0.5669 -0.3164  0.4215
    4POPC  H10Y  517   3.041   3.744   4.805 -0.1097  0.1456 -0.1120
    4POPC  C311  518   3.209   3.895   4.783 -0.4717  0.0341  0.1056
    4POPC  H11X  519   3.300   3.831   4.779 -1.4143 -1.2567 -1.4846
    4POPC  H11Y  520   3.231   3.988   4.840  0.2738  1.3077 -2.1714
    4POPC  C312  521   3.188   3.947   4.638  0.2135  0.5737 -0.6229
    4POPC  H12X  522   3.265   4.022   4.608 -0.3035  0.4360 -2.4058
    4POPC  H12Y  523   3.083   3.983   4.636 -0.8514 -2.2834 -0.6467
    4POPC  C313  524   3.202   3.833   4.538  0.1073  0.2679 -0.1169
    4POPC  H13X  525   3.148   3.739   4.563  0.3724 -0.0555 -0.7225
    4POPC  H13Y  526   3.310   3.807   4.547  0.6674  2.0257 -1.2777
    4POPC  C314  527   3.182   3.881   4.392  0.4837 -0.0743 -0.2655
    4POPC  H14X  528   3.242   3.970   4.366 -0.0706  0.9203  1.6900
    4POPC  H14Y  529   3.075   3.910   4.378  0.1260 -1.4737 -0.6059
    4POPC  C315  530   3.220   3.768   4.297 -0.0547  0.3086 -0.1191
    4POPC  H15X  531   3.158   3.677   4.313 -2.4056  1.3396 -2.6253
    4POPC  H15Y  532   3.325   3.741   4.324 -0.2159 -1.2568 -0.8926
    4POPC  C316  533   3.218   3.789   4.143 -0.2517 -0.2380 -0.8663
    4POPC  H16X  534   3.120   3.830   4.109 -0.8925 -0.0534  1.0963
    4POPC  H16Y  535   3.235   3.692   4.093  0.0972 -2.1540  2.6954
    4POPC  H16Z  536   3.304   3.844   4.099  0.1465 -0.4901 -0.4072
    5POPC     N  537   2.923   2.769   6.722  0.5790 -0.8263  0.1345
    5POPC   C12  538   2.923   2.712   6.580 -0.6060  0.0480 -0.1998
    5POPC  H12A  539   3.018   2.728   6.532 -1.2037 -0.0210 -1.4300
    5POPC  H12B  540   2.852   2.773   6.526 -0.2815  1.0238  0.4561
    5POPC   C13  541   2.791   2.734   6.775 -0.3286 -0.3197 -0.5055
    5POPC  H13A  542   2.707   2.777   6.723 -1.7874 -1.7412  0.5377
    5POPC  H13B  543   2.783   2.626   6.774 -0.9491 -0.3131  0.7063
    5POPC  H13C  544   2.777   2.759   6.880  0.3185  1.3670 -0.7980
    5POPC   C14  545   3.021   2.695   6.811  0.2269 -0.3111  0.8518
    5POPC  H14A  546   3.012   2.589   6.792  2.3218 -0.2895 -0.4496
    5POPC  H14B  547   3.120   2.719   6.776 -0.7703  2.0675 -0.5923
    5POPC  H14C  548   3.009   2.718   6.916  1.3313 -2.6569  1.5616
    5POPC   C15  549   2.950   2.911   6.732  0.6115  0.8248  0.5410
    5POPC  H15A  550   3.034   2.935   6.668 -0.5617  1.0861 -0.9762
    5POPC  H15B  551   2.956   2.936   6.837  0.5713  1.1191  0.4761
    5POPC  H15C  552   2.864   2.970   6.702  1.0523  0.2780 -2.0971
    5POPC   C11  553   2.892   2.562   6.561 -0.7018  0.2499 -0.4251
    5POPC  H11A  554   2.866   2.540   6.455 -2.4887  0.0753  0.0240
    5POPC  H11B  555   2.808   2.538   6.629  0.0532 -0.2226  0.3669
    5POPC     P  556   3.121   2.453   6.498 -0.0627 -0.3619  0.0370
    5POPC   O13  557   3.203   2.348   6.561  0.3048 -0.6774  0.7740
    5POPC   O14  558   3.194   2.580   6.465 -0.5482 -0.3029  0.5567
    5POPC   O12  559   2.999   2.475   6.602 -0.0694  0.2997 -0.2103
    5POPC   O11  560   3.059   2.388   6.365  0.4673 -0.2583  0.3908
    5POPC    C1  561   3.050   2.477   6.249 -0.6494 -0.3694  0.9441
    5POPC    HA  562   3.149   2.526   6.232 -0.5570 -0.4804  1.1633
    5POPC    HB  563   2.972   2.554   6.263 -0.9133 -0.1572 -1.2735
    5POPC    C2  564   3.010   2.402   6.112  0.4768 -1.1979 -0.1754
    5POPC    HS  565   3.044   2.463   6.025  1.0328 -0.0372  0.8376
    5POPC   O21  566   2.866   2.382   6.105  0.0755 -0.0279  0.0491
    5POPC   C21  567   2.794   2.492   6.068  0.1407 -0.3176  0.8767
    5POPC   O22  568   2.829   2.610   6.080 -0.2665 -0.0475  0.8681
    5POPC   C22  569   2.669   2.441   5.987  0.3642  0.6768  0.0169
    5POPC   H2R  570   2.595   2.520   5.964  0.4965  0.3822 -1.5678
    5POPC   H2S  571   2.615   2.368   6.050  0.4617  0.6408  0.0588
    5POPC    C3  572   3.072   2.263   6.117 -0.3608  0.1286  0.2021
    5POPC    HX  573   3.033   2.202   6.202 -1.0229  1.4302  0.8583
    5POPC    HY  574   3.181   2.268   6.141 -0.1253 -1.3785 -0.4220
    5POPC   O31  575   3.050   2.200   5.989  0.0938  1.2309 -0.8367
    5POPC   C31  576   3.121   2.092   5.985  0.2490 -0.2035 -0.3805
    5POPC   O32  577   3.194   2.044   6.070 -0.5285  0.0077  0.4179
    5POPC   C32  578   3.128   2.046   5.845  0.0090  0.1765  0.0378
    5POPC   H2X  579   3.224   1.993   5.828 -0.3594  0.0060 -1.7168
    5POPC   H2Y  580   3.140   2.132   5.776  0.4556  1.6250  1.8293
    5POPC   C23  581   2.719   2.370   5.853 -0.4159  0.0090  0.0420
    5POPC   H3R  582   2.630   2.311   5.821 -0.3282  0.6293 -1.3780
    5POPC   H3S  583   2.798   2.293   5.867 -1.9085 -1.4275  1.0408
    5POPC   C24  584   2.770   2.454   5.737  0.2094  0.4819 -0.1868
    5POPC   H4R  585   2.871   2.491   5.765  1.0609 -2.2390  0.6335
    5POPC   H4S  586   2.697   2.532   5.706 -0.5674 -0.9469 -2.1301
    5POPC   C25  587   2.803   2.374   5.608  0.0218  0.0867  0.0703
    5POPC   H5R  588   2.704   2.326   5.590  0.4802 -0.5083 -0.9527
    5POPC   H5S  589   2.879   2.295   5.629  0.6592  0.4954 -0.6470
    5POPC   C26  590   2.837   2.468   5.490  0.1687 -0.2174  0.5299
    5POPC   H6R  591   2.764   2.552   5.490  0.2555 -0.1334 -0.0014
    5POPC   H6S  592   2.815   2.415   5.394 -0.9727  0.3671  0.4530
    5POPC   C27  593   2.980   2.517   5.470 -0.0990 -0.6952 -0.0251
    5POPC   H7R  594   3.049   2.435   5.501  1.6179 -0.0391 -1.9089
    5POPC   H7S  595   2.991   2.607   5.533 -1.6234  0.3616 -1.2002
    5POPC   C28  596   3.011   2.558   5.323  0.2372 -0.3192  0.9184
    5POPC   H8R  597   2.916   2.605   5.291  0.7925  0.2246  0.0304
    5POPC   H8S  598   3.018   2.466   5.261  2.9746 -0.3118  1.0990
    5POPC   C29  599   3.124   2.646   5.304 -0.6037 -0.2333  0.6492
    5POPC   H91  600   3.126   2.728   5.377 -1.3219  0.1995  0.1922
    5POPC  C210  601   3.240   2.616   5.239  0.4127  0.0817  0.2675
    5POPC  H101  602   3.334   2.673   5.233  0.2888  0.1528 -2.2691
    5POPC  C211  603   3.270   2.507   5.148 -0.4527 -0.9347  0.6203
    5POPC  H11R  604   3.285   2.543   5.044 -0.9267 -2.0931  0.1433
    5POPC  H11S  605   3.185   2.437   5.141 -0.0142 -1.4194  0.0625
    5POPC  C212  606   3.388   2.415   5.182  0.8553 -0.0348  0.2653
    5POPC  H12R  607   3.476   2.470   5.222  0.4151  0.6657  0.2782
    5POPC  H12S  608   3.415   2.353   5.093  0.9622 -0.1976  0.4115
    5POPC  C213  609   3.344   2.312   5.295  0.2418  0.0671  0.3586
    5POPC  H13R  610   3.254   2.252   5.269 -0.7293  1.1813  1.0895
    5POPC  H13S  611   3.304   2.367   5.382  0.3814 -0.3322  0.6775
    5POPC  C214  612   3.452   2.210   5.342 -0.2024 -0.2791  0.5894
    5POPC  H14R  613   3.544   2.266   5.368  1.4654 -2.0522 -1.1457
    5POPC  H14S  614   3.488   2.139   5.265  1.9546  0.0207  1.2344
    5POPC  C215  615   3.406   2.142   5.463 -0.0001 -0.4907 -0.2531
    5POPC  H15R  616   3.306   2.097   5.443 -3.1701  5.2211  0.5062
    5POPC  H15S  617   3.405   2.212   5.550  1.2961  0.0255 -0.6385
    5POPC  C216  618   3.510   2.041   5.522  0.0276  0.4507 -0.2828
    5POPC  H16R  619   3.609   2.090   5.530 -0.3840  1.5148 -1.3912
    5POPC  H16S  620   3.509   1.954   5.453  0.6229 -1.4786  2.0020
    5POPC  C217  621   3.457   1.975   5.656 -0.2728 -0.8503 -0.1360
    5POPC  H17R  622   3.357   1.933   5.633 -0.9886 -1.8164  3.9479
    5POPC  H17S  623   3.434   2.055   5.730  0.0083 -2.5188  1.8633
    5POPC  C218  624   3.549   1.877   5.731  0.5441 -0.1667 -0.5850
    5POPC  H18R  625   3.643   1.924   5.766  0.9599 -1.4790  0.1453
    5POPC  H18S  626   3.580   1.793   5.666  1.3255 -1.2693  1.1337
    5POPC  H18T  627   3.491   1.834   5.815 -0.2721 -0.4548 -1.2866
    5POPC   C33  628   3.019   1.939   5.813 -0.2461  0.3122  0.1137
    5POPC   H3X  629   2.916   1.977   5.827 -0.0263  0.1354  2.8313
    5POPC   H3Y  630   3.033   1.850   5.878  2.7912  0.2663 -0.4436
    5POPC   C34  631   3.034   1.899   5.662 -0.7228  0.2486 -0.1890
    5POPC   H4X  632   2.957   1.821   5.640 -1.6157  0.4844  1.8622
    5POPC   H4Y  633   3.126   1.842   5.637 -0.4234  1.2971 -1.5813
    5POPC   C35  634   3.009   2.016   5.576  0.5001  0.2903  0.0156
    5POPC   H5X  635   3.101   2.077   5.561  0.8172 -0.3757 -0.8191
    5POPC   H5Y  636   2.927   2.081   5.615 -0.3082 -0.6315 -0.0988
    5POPC   C36  637   2.993   1.977   5.432  0.5545  0.5531  0.6761
    5POPC   H6X  638   2.894   1.929   5.413  0.5288  0.8617  0.0226
    5POPC   H6Y  639   3.050   1.885   5.407 -0.1499  0.2352  0.2079
    5POPC   C37  640   3.004   2.095   5.332  0.4189  0.3348 -0.2101
    5POPC   H7X  641   3.113   2.118   5.339  0.3251  0.7827 -0.2051
    5POPC   H7Y  642   2.943   2.182   5.365 -1.9431 -0.4121 -2.3249
    5POPC   C38  643   2.966   2.053   5.188 -0.1455  0.5726  0.2284
    5POPC   H8X  644   2.865   2.008   5.197 -0.4246  1.1874  0.1978
    5POPC   H8Y  645   3.026   1.961   5.171 -0.4390 -0.2256  3.0282
    5POPC   C39  646   2.987   2.172   5.103 -0.2760  0.4449  0.9141
    5POPC   H9X  647   3.097   2.187   5.103 -0.3228  0.8279  1.9313
    5POPC   H9Y  648   2.936   2.257   5.154 -2.1123  0.5390 -0.9272
    5POPC  C310  649   2.918   2.155   4.965 -0.0961  0.6082 -0.1801
    5POPC  H10X  650   2.811   2.127   4.976 -0.1527  1.3291  1.1636
    5POPC  H10Y  651   2.979   2.074   4.919 -0.3128  0.4435 -0.1819
    5POPC  C311  652   2.940   2.272   4.871  0.0230  0.5161 -0.2081
    5POPC  H11X  653   2.909   2.370   4.914  0.2317 -0.1424  1.4945
    5POPC  H11Y  654   2.883   2.247   4.779 -0.7605  0.2595  0.3457
    5POPC  C312  655   3.082   2.284   4.820 -0.4603 -0.1646  0.0477
    5POPC  H12X  656   3.121   2.184   4.789 -0.2432  0.0209 -0.2782
    5POPC  H12Y  657   3.138   2.305   4.913 -1.3896  0.5802  0.4535
    5POPC  C313  658   3.101   2.399   4.713 -0.1468  0.5323 -0.6846
    5POPC  H13X  659   3.065   2.501   4.738  3.1252  1.6307 -0.0049
    5POPC  H13Y  660   3.049   2.357   4.624 -1.4872  0.0018  0.3059
    5POPC  C314  661   3.245   2.428   4.676  0.3532  0.4270  0.0597
    5POPC  H14X  662   3.294   2.345   4.619 -0.2087  0.5560 -0.6267
    5POPC  H14Y  663   3.319   2.453   4.755  0.8634  1.5913 -0.7491
    5POPC  C315  664   3.270   2.545   4.579  0.1260  0.2867 -0.1883
    5POPC  H15X  665   3.377   2.577   4.577 -0.2438  1.8556  1.9290
    5POPC  H15Y  666   3.218   2.631   4.626  1.2464  0.9290 -0.0773
    5POPC  C316  667   3.201   2.544   4.443 -0.0875  0.2761  0.2268
    5POPC  H16X  668   3.239   2.456   4.387  0.5101  1.0717 -0.6470
    5POPC  H16Y  669   3.215   2.638   4.385 -0.3244  0.6940  0.8453
    5POPC  H16Z  670   3.092   2.534   4.459 -0.0379 -0.4497  0.1695
    6POPC     N  671   2.611   3.267   6.538  0.4485 -0.3429  0.8500
    6POPC   C12  672   2.577   3.360   6.425 -0.1207  0.6306 -0.1386
    6POPC  H12A  673   2.661   3.425   6.408  0.0829 -0.0296 -1.8623
    6POPC  H12B  674   2.493   3.422   6.453 -0.5705  0.5159 -1.1949
    6POPC   C13  675   2.493   3.183   6.569  0.9821  0.3918 -0.1095
    6POPC  H13A  676   2.455   3.125   6.486  0.8787 -0.2328  0.3691
    6POPC  H13B  677   2.509   3.106   6.643  1.3848  0.4295 -0.1522
    6POPC  H13C  678   2.410   3.246   6.597  0.4643 -0.2462 -0.2176
    6POPC   C14  679   2.727   3.179   6.503 -0.0342 -0.1692 -0.8871
    6POPC  H14A  680   2.819   3.235   6.495  0.5936 -0.9309  0.6007
    6POPC  H14B  681   2.739   3.106   6.582 -0.0832 -1.9457 -2.4476
    6POPC  H14C  682   2.699   3.134   6.409  2.4063  1.4904 -2.5032
    6POPC   C15  683   2.639   3.347   6.655 -0.0707  0.6592 -0.3398
    6POPC  H15A  684   2.644   3.288   6.746 -1.0083 -0.9226 -1.2723
    6POPC  H15B  685   2.561   3.421   6.671 -0.1619  0.0745  2.5907
    6POPC  H15C  686   2.728   3.406   6.638 -0.9624  1.7286 -1.4919
    6POPC   C11  687   2.550   3.299   6.292  0.1413  0.2120 -0.1096
    6POPC  H11A  688   2.643   3.242   6.269  1.0985  1.0367  1.5510
    6POPC  H11B  689   2.560   3.378   6.215  1.5860 -0.9578 -1.2048
    6POPC     P  690   2.297   3.309   6.270  0.2808  0.4055  0.3128
    6POPC   O13  691   2.290   3.420   6.367 -0.2004 -0.4350 -0.0359
    6POPC   O14  692   2.178   3.221   6.273 -0.1129  0.2246  0.2296
    6POPC   O12  693   2.425   3.227   6.289  0.6809  0.1011 -0.0432
    6POPC   O11  694   2.314   3.360   6.120 -0.5241  0.3419  0.1715
    6POPC    C1  695   2.287   3.264   6.013  0.4021 -0.0659 -0.7375
    6POPC    HA  696   2.306   3.158   6.038 -0.4158 -0.6104 -2.2717
    6POPC    HB  697   2.358   3.284   5.931  0.2571 -1.8284 -1.3357
    6POPC    C2  698   2.141   3.275   5.957 -0.5448  0.0168  0.3204
    6POPC    HS  699   2.071   3.278   6.043  0.6516  0.9642  1.3021
    6POPC   O21  700   2.112   3.160   5.878 -0.0218 -0.2773 -0.4234
    6POPC   C21  701   1.982   3.148   5.844  0.1448 -0.0021  0.1363
    6POPC   O22  702   1.896   3.219   5.882  0.2361  0.5229 -0.3899
    6POPC   C22  703   1.965   3.023   5.757 -0.4463 -0.6212 -0.3812
    6POPC   H2R  704   1.873   2.977   5.799 -0.1099 -0.3980  0.6295
    6POPC   H2S  705   2.055   2.959   5.768 -1.4596 -2.1680 -0.7558
    6POPC    C3  706   2.135   3.408   5.880  0.1508  0.1356  0.3642
    6POPC    HX  707   2.183   3.478   5.950  0.2877  0.2398  0.1671
    6POPC    HY  708   2.028   3.436   5.872 -0.3993 -2.0705 -0.9582
    6POPC   O31  709   2.212   3.399   5.757  0.4474 -0.1992 -0.1882
    6POPC   C31  710   2.256   3.514   5.707  0.2247  0.6940 -0.4224
    6POPC   O32  711   2.234   3.624   5.749  0.3543  0.0153  0.4486
    6POPC   C32  712   2.345   3.487   5.580 -0.4923  0.1301  0.0460
    6POPC   H2X  713   2.436   3.428   5.606  0.1900  1.5957  1.1405
    6POPC   H2Y  714   2.381   3.587   5.547 -1.5104 -0.3675 -2.7920
    6POPC   C23  715   1.945   3.057   5.607 -0.1155 -0.4432 -0.1615
    6POPC   H3R  716   2.041   3.101   5.573  1.3485 -2.4320  1.1800
    6POPC   H3S  717   1.857   3.124   5.596  1.6822  1.7462 -2.3567
    6POPC   C24  718   1.905   2.938   5.522  0.3475  0.9541 -0.4016
    6POPC   H4R  719   1.802   2.900   5.539  0.9718 -0.6188  0.0589
    6POPC   H4S  720   1.974   2.855   5.549  0.7148  1.5459  0.5468
    6POPC   C25  721   1.914   2.973   5.372  0.1906  0.3177  0.2119
    6POPC   H5R  722   1.869   3.074   5.356  0.0502  0.0429 -1.2487
    6POPC   H5S  723   1.861   2.907   5.300 -2.8441  3.0647 -0.3486
    6POPC   C26  724   2.059   2.963   5.320 -0.9411  0.5534  0.3253
    6POPC   H6R  725   2.095   2.859   5.333  0.6683  1.0722  0.1503
    6POPC   H6S  726   2.126   3.027   5.381  3.1421 -0.5285 -2.6329
    6POPC   C27  727   2.080   3.006   5.174 -0.0037  0.2419  0.0252
    6POPC   H7R  728   2.068   3.116   5.163  3.0084  0.7605  0.9881
    6POPC   H7S  729   2.001   2.953   5.115 -0.5582  1.6253 -0.5189
    6POPC   C28  730   2.218   2.967   5.116  0.5248 -0.0540 -0.3390
    6POPC   H8R  731   2.236   2.858   5.109  0.3571 -0.2498  1.7291
    6POPC   H8S  732   2.303   3.004   5.178  1.0638  1.3603 -1.8430
    6POPC   C29  733   2.251   3.046   4.992  0.1788  0.0521  0.4554
    6POPC   H91  734   2.222   3.152   4.994  1.0257  0.3099 -0.1779
    6POPC  C210  735   2.307   3.001   4.878 -0.4763  0.2104 -0.5373
    6POPC  H101  736   2.335   3.079   4.806  0.6414  2.3320  2.0103
    6POPC  C211  737   2.339   2.864   4.848 -0.8403 -0.5165 -0.4281
    6POPC  H11R  738   2.267   2.788   4.886 -0.3308 -0.2709  1.0802
    6POPC  H11S  739   2.443   2.850   4.884  0.2636  0.6191 -2.9378
    6POPC  C212  740   2.365   2.833   4.697  0.5582 -0.1684  0.3741
    6POPC  H12R  741   2.273   2.831   4.634  0.6495  0.4275  0.2066
    6POPC  H12S  742   2.403   2.729   4.697  0.5292 -0.1811  0.0180
    6POPC  C213  743   2.468   2.920   4.622 -0.2855 -0.0760 -0.0734
    6POPC  H13R  744   2.510   2.998   4.689  0.5414 -1.0342  0.5469
    6POPC  H13S  745   2.403   2.970   4.547 -0.4112 -2.0795 -1.3621
    6POPC  C214  746   2.587   2.849   4.560 -0.0982  0.3353 -0.4031
    6POPC  H14R  747   2.547   2.796   4.471 -0.9992 -1.0072  0.7387
    6POPC  H14S  748   2.642   2.774   4.622  1.6348  1.3690 -0.6521
    6POPC  C215  749   2.699   2.933   4.507  0.1987  0.2103  0.1836
    6POPC  H15R  750   2.644   3.021   4.466 -0.1384 -0.0937 -0.0221
    6POPC  H15S  751   2.763   2.882   4.432  0.4889 -0.3234  0.7905
    6POPC  C216  752   2.787   2.978   4.617 -0.3589  0.0788 -0.4174
    6POPC  H16R  753   2.833   2.889   4.666 -1.0117 -0.2047 -0.3110
    6POPC  H16S  754   2.727   3.024   4.699  0.6674 -0.7061  0.8323
    6POPC  C217  755   2.905   3.066   4.578  1.0165 -0.5723 -0.3869
    6POPC  H17R  756   2.957   3.093   4.673  0.9628  0.1535 -0.5644
    6POPC  H17S  757   2.885   3.166   4.536  2.3257 -0.1516 -0.0537
    6POPC  C218  758   3.011   2.996   4.495  0.2313 -0.9084 -0.3186
    6POPC  H18R  759   2.964   2.971   4.397  0.2446 -0.0327 -0.5619
    6POPC  H18S  760   3.042   2.900   4.541 -1.5673 -0.6353  1.6424
    6POPC  H18T  761   3.101   3.059   4.480 -0.5522 -0.1931 -2.4385
    6POPC   C33  762   2.265   3.411   5.468  0.3607 -0.0175  0.6127
    6POPC   H3X  763   2.156   3.431   5.472 -0.0099 -0.9056 -2.3056
    6POPC   H3Y  764   2.266   3.302   5.493 -0.9418  0.0696  1.1184
    6POPC   C34  765   2.329   3.453   5.337 -0.1135  0.0473 -0.2691
    6POPC   H4X  766   2.436   3.424   5.346  0.3740  1.9419  0.4365
    6POPC   H4Y  767   2.321   3.562   5.321 -0.7255 -0.0079 -0.3944
    6POPC   C35  768   2.260   3.390   5.212  0.0083  0.1965 -1.2255
    6POPC   H5X  769   2.244   3.281   5.218  0.3837  0.2061  0.1718
    6POPC   H5Y  770   2.338   3.394   5.133  2.3844 -1.5011  0.8813
    6POPC   C36  771   2.130   3.469   5.174 -0.3323 -0.0240  0.3935
    6POPC   H6X  772   2.168   3.571   5.153  1.1057 -0.7372 -0.6441
    6POPC   H6Y  773   2.066   3.476   5.265  1.2654  1.2008  1.4635
    6POPC   C37  774   2.059   3.397   5.059 -0.5520  0.6672 -0.3785
    6POPC   H7X  775   2.011   3.308   5.107 -2.0785  0.8290 -1.5493
    6POPC   H7Y  776   2.128   3.349   4.987  0.0076  0.6708  0.1450
    6POPC   C38  777   1.962   3.484   4.980  0.5108 -0.8369  0.3593
    6POPC   H8X  778   1.920   3.426   4.895 -0.3208  0.5916 -0.2393
    6POPC   H8Y  779   2.015   3.575   4.943 -0.1288  0.0277  1.5155
    6POPC   C39  780   1.834   3.538   5.045 -0.5172 -0.3574  0.4803
    6POPC   H9X  781   1.853   3.591   5.140  1.2724  0.7397 -0.4195
    6POPC   H9Y  782   1.768   3.452   5.067  1.0896 -1.9737 -0.6021
    6POPC  C310  783   1.760   3.626   4.940  0.8786  0.0809  0.1327
    6POPC  H10X  784   1.724   3.559   4.859  3.4749  1.5428 -2.4421
    6POPC  H10Y  785   1.836   3.693   4.893 -0.6719  1.0707 -1.0623
    6POPC  C311  786   1.633   3.699   4.989  0.2103  0.5299 -0.1271
    6POPC  H11X  787   1.589   3.739   4.895  0.1130 -0.4097 -0.4891
    6POPC  H11Y  788   1.665   3.788   5.048 -2.6367  1.1235  0.6464
    6POPC  C312  789   1.551   3.616   5.087  0.4274 -0.5045  0.5236
    6POPC  H12X  790   1.619   3.584   5.169  0.2596 -0.7343  0.5754
    6POPC  H12Y  791   1.508   3.529   5.032  0.1704  0.6812 -1.2340
    6POPC  C313  792   1.452   3.718   5.141 -0.3091  0.4583  0.5535
    6POPC  H13X  793   1.367   3.665   5.188 -0.2534  0.4815  0.6810
    6POPC  H13Y  794   1.410   3.765   5.049 -0.4978  0.3162  0.5673
    6POPC  C314  795   1.517   3.826   5.232  0.7623 -0.1865 -0.2829
    6POPC  H14X  796   1.520   3.925   5.181 -0.9110 -1.4482 -3.0150
    6POPC  H14Y  797   1.619   3.785   5.250 -0.2489 -2.5052  0.5373
    6POPC  C315  798   1.446   3.840   5.363  0.3291 -0.6238  0.6177
    6POPC  H15X  799   1.508   3.905   5.429  1.0172  0.9408 -1.4617
    6POPC  H15Y  800   1.427   3.740   5.408 -0.7819 -0.3708  0.7344
    6POPC  C316  801   1.313   3.908   5.337 -0.8146 -0.7903 -0.3343
    6POPC  H16X  802   1.258   3.866   5.250 -0.0414  0.2466 -1.3583
    6POPC  H16Y  803   1.336   4.013   5.307 -2.1756 -0.6644 -1.0182
    6POPC  H16Z  804   1.250   3.909   5.429  1.4217  0.4871  1.2854
    7POPC     N  805   4.250   4.298   6.189 -0.0830  0.3422 -1.1273
    7POPC   C12  806   4.288   4.283   6.043 -0.0159  0.2602  0.6060
    7POPC  H12A  807   4.394   4.270   6.032 -0.2699 -2.5262  0.7323
    7POPC  H12B  808   4.269   4.379   5.997  2.3237 -0.3641 -1.9511
    7POPC   C13  809   4.244   4.164   6.253  0.1468 -0.1187  0.1056
    7POPC  H13A  810   4.341   4.117   6.245  0.7342  1.2752 -1.3466
    7POPC  H13B  811   4.213   4.170   6.356 -0.0529 -0.6534  0.0805
    7POPC  H13C  812   4.173   4.098   6.204 -0.1571  0.6997 -0.5736
    7POPC   C14  813   4.351   4.387   6.260  0.0370 -0.0623 -0.7261
    7POPC  H14A  814   4.442   4.330   6.259  0.1966  0.1666 -2.6465
    7POPC  H14B  815   4.365   4.482   6.211  0.5080  0.7828  0.9459
    7POPC  H14C  816   4.319   4.419   6.359 -0.7777  1.7343 -1.5221
    7POPC   C15  817   4.115   4.357   6.199  0.0757  0.2562  0.1920
    7POPC  H15A  818   4.079   4.374   6.300 -1.6359  2.0563 -0.6408
    7POPC  H15B  819   4.037   4.294   6.158  0.4709  0.0262 -0.2083
    7POPC  H15C  820   4.109   4.456   6.155 -2.6002  0.9169  1.7672
    7POPC   C11  821   4.209   4.174   5.958  0.0022 -0.1548  0.6622
    7POPC  H11A  822   4.237   4.211   5.857  0.2840  0.6721  1.0269
    7POPC  H11B  823   4.098   4.179   5.965 -0.1102 -1.4502 -0.0368
    7POPC     P  824   4.172   3.921   5.983 -0.1429  0.3917  0.2239
    7POPC   O13  825   4.037   3.958   6.034 -0.3694 -0.1611 -0.3272
    7POPC   O14  826   4.243   3.819   6.063  0.1946  0.2929  0.6568
    7POPC   O12  827   4.262   4.048   5.979 -0.3655  0.2451 -0.0698
    7POPC   O11  828   4.162   3.868   5.831  0.0280  0.3723 -0.1283
    7POPC    C1  829   4.254   3.894   5.729 -0.1960  0.6022 -0.0251
    7POPC    HA  830   4.316   3.803   5.715  0.2312  1.2686 -3.2937
    7POPC    HB  831   4.328   3.973   5.752  0.5834  0.1911 -1.0129
    7POPC    C2  832   4.185   3.917   5.590  0.4919 -0.6730  0.5606
    7POPC    HS  833   4.127   4.011   5.599 -1.3116 -1.4979 -1.5230
    7POPC   O21  834   4.102   3.807   5.548 -0.5081 -0.3035  0.3726
    7POPC   C21  835   4.007   3.833   5.459 -0.1613 -0.3497 -0.7760
    7POPC   O22  836   3.971   3.949   5.426  0.2342 -0.1361 -0.3443
    7POPC   C22  837   3.940   3.703   5.411 -0.0207  0.1114  0.2024
    7POPC   H2R  838   3.923   3.637   5.499  0.4763  1.3643  1.2692
    7POPC   H2S  839   4.017   3.662   5.342 -0.2543 -0.6077  0.3529
    7POPC    C3  840   4.295   3.945   5.480 -0.2663  0.7202 -0.3493
    7POPC    HX  841   4.331   4.051   5.479  2.2513 -0.0713 -0.5533
    7POPC    HY  842   4.240   3.938   5.384  1.3697  0.9730 -1.3290
    7POPC   O31  843   4.404   3.850   5.487  0.5497 -0.3309 -0.2878
    7POPC   C31  844   4.399   3.739   5.416 -0.1745 -0.3392 -0.9773
    7POPC   O32  845   4.306   3.704   5.346 -0.3989  0.3710 -0.0760
    7POPC   C32  846   4.542   3.674   5.414  0.2856  0.1805 -1.0263
    7POPC   H2X  847   4.542   3.599   5.497  0.7826  0.7686 -0.4833
    7POPC   H2Y  848   4.616   3.753   5.439  1.4345 -1.1913  0.0691
    7POPC   C23  849   3.807   3.743   5.344 -0.8250 -0.2758 -0.2659
    7POPC   H3R  850   3.832   3.818   5.266 -0.8936  0.1682  0.1353
    7POPC   H3S  851   3.747   3.793   5.423 -1.1173  1.0914 -1.3152
    7POPC   C24  852   3.733   3.628   5.274 -0.7843 -0.2403 -0.6852
    7POPC   H4R  853   3.634   3.664   5.237  0.2443  0.9544 -2.4195
    7POPC   H4S  854   3.732   3.553   5.356 -1.5006  0.5528  0.0454
    7POPC   C25  855   3.818   3.579   5.160 -0.4884  0.5780 -0.4369
    7POPC   H5R  856   3.910   3.525   5.191 -1.4009  0.4774  2.3592
    7POPC   H5S  857   3.857   3.654   5.088  1.2343 -1.0194 -1.2614
    7POPC   C26  858   3.734   3.489   5.063 -0.0311  0.3007  0.4483
    7POPC   H6R  859   3.678   3.557   4.996 -0.8239 -0.4428  0.3299
    7POPC   H6S  860   3.658   3.436   5.125  0.8969 -1.2314  0.3329
    7POPC   C27  861   3.813   3.388   4.977 -0.6048 -0.2090 -0.4439
    7POPC   H7R  862   3.741   3.324   4.921 -0.7487  0.6509 -1.2754
    7POPC   H7S  863   3.876   3.326   5.043  0.8092  1.2026 -0.4143
    7POPC   C28  864   3.899   3.468   4.873 -0.2627  0.0250  0.3698
    7POPC   H8R  865   3.969   3.533   4.929 -1.6714  0.5720  1.5663
    7POPC   H8S  866   3.832   3.529   4.809  0.0960  0.9075  0.8232
    7POPC   C29  867   3.955   3.362   4.777 -0.0831  0.1868 -0.6239
    7POPC   H91  868   3.906   3.264   4.778 -1.5493  0.8761 -1.5878
    7POPC  C210  869   4.077   3.377   4.722  0.7626  0.5678  0.0416
    7POPC  H101  870   4.128   3.300   4.662  0.1177  0.1761 -0.0069
    7POPC  C211  871   4.174   3.491   4.760  0.2699  0.2030  0.2269
    7POPC  H11R  872   4.112   3.582   4.756 -1.2045 -0.6453  2.1069
    7POPC  H11S  873   4.257   3.507   4.688  0.7239  1.8549  1.0685
    7POPC  C212  874   4.226   3.473   4.905  0.5490  0.5902  0.1612
    7POPC  H12R  875   4.302   3.393   4.900 -0.2687 -0.2916  1.2802
    7POPC  H12S  876   4.149   3.440   4.979  0.8424 -1.7584 -0.5178
    7POPC  C213  877   4.284   3.598   4.973 -0.4072 -0.6193 -0.5416
    7POPC  H13R  878   4.365   3.634   4.906  1.5994 -0.5132  1.8137
    7POPC  H13S  879   4.334   3.562   5.065 -0.7450  1.4261  0.4932
    7POPC  C214  880   4.178   3.696   5.013 -0.3458 -0.3306  0.7148
    7POPC  H14R  881   4.120   3.658   5.100 -0.3843  1.8084  1.6715
    7POPC  H14S  882   4.105   3.721   4.933  0.3885 -0.6828 -0.0801
    7POPC  C215  883   4.243   3.828   5.057 -0.7132 -0.4739 -0.1697
    7POPC  H15R  884   4.310   3.865   4.977 -0.2286  0.0570  0.4696
    7POPC  H15S  885   4.305   3.804   5.146 -0.0839 -0.3432 -0.5685
    7POPC  C216  886   4.136   3.927   5.083 -0.4186 -0.3135 -0.4653
    7POPC  H16R  887   4.062   3.888   5.157  0.3038 -2.2208 -0.7034
    7POPC  H16S  888   4.090   3.933   4.982  1.7369 -0.5919 -1.5208
    7POPC  C217  889   4.182   4.061   5.127 -0.5716 -0.8071  0.0571
    7POPC  H17R  890   4.234   4.113   5.043 -1.5495  1.4035  0.7505
    7POPC  H17S  891   4.248   4.052   5.216 -0.7414 -1.9585  0.0806
    7POPC  C218  892   4.070   4.157   5.166  0.2587  0.3177 -0.5795
    7POPC  H18R  893   4.007   4.177   5.077  1.8128  1.2948 -1.5041
    7POPC  H18S  894   4.106   4.254   5.208 -0.8860  0.1070  0.9853
    7POPC  H18T  895   4.010   4.108   5.246 -0.5104  2.2023  0.0465
    7POPC   C33  896   4.580   3.610   5.282  0.0525 -0.1955 -0.3644
    7POPC   H3X  897   4.498   3.539   5.260  1.2196 -1.4485 -0.7723
    7POPC   H3Y  898   4.661   3.537   5.302 -1.1474 -2.1224 -2.1451
    7POPC   C34  899   4.604   3.707   5.164  0.3200 -0.5475 -0.2069
    7POPC   H4X  900   4.506   3.745   5.128  0.2601  0.8507  1.3473
    7POPC   H4Y  901   4.661   3.658   5.082  1.8834  1.3311 -0.3135
    7POPC   C35  902   4.689   3.828   5.202 -0.4011  0.3941 -0.1924
    7POPC   H5X  903   4.776   3.784   5.255 -2.2746 -2.3255  0.8307
    7POPC   H5Y  904   4.629   3.880   5.279 -2.1485  1.3637 -2.0962
    7POPC   C36  905   4.725   3.930   5.087  0.5278 -0.2345  0.4242
    7POPC   H6X  906   4.789   3.892   5.005  0.0604 -2.1092  0.8886
    7POPC   H6Y  907   4.781   4.010   5.140 -0.8240 -0.8101  2.8586
    7POPC   C37  908   4.600   3.987   5.010 -0.1720 -0.2909  0.1666
    7POPC   H7X  909   4.532   4.033   5.084 -0.5458  0.9155 -0.9008
    7POPC   H7Y  910   4.561   3.897   4.959  2.5197 -0.8932 -1.0008
    7POPC   C38  911   4.650   4.099   4.912  0.2024  0.3773 -0.4084
    7POPC   H8X  912   4.718   4.045   4.844 -1.3425 -1.6167 -0.4531
    7POPC   H8Y  913   4.708   4.176   4.968  1.1787 -0.9276  0.4327
    7POPC   C39  914   4.531   4.169   4.835 -0.3218 -0.1740  0.0430
    7POPC   H9X  915   4.456   4.206   4.908 -2.6564 -0.5483 -2.0248
    7POPC   H9Y  916   4.483   4.090   4.773 -0.9402 -0.5360  0.9643
    7POPC  C310  917   4.581   4.276   4.733  0.6986  0.3308 -0.9631
    7POPC  H10X  918   4.671   4.244   4.677  2.6077  0.1375  1.9964
    7POPC  H10Y  919   4.622   4.360   4.793  0.6299  0.3681 -0.9672
    7POPC  C311  920   4.465   4.333   4.653  0.7050 -0.6820 -0.7174
    7POPC  H11X  921   4.387   4.365   4.726  2.7501  2.6542  0.2185
    7POPC  H11Y  922   4.428   4.258   4.579  0.3919 -1.0646 -0.1791
    7POPC  C312  923   4.488   4.462   4.579  0.2985 -0.1239  0.3925
    7POPC  H12X  924   4.572   4.446   4.508  0.3694 -1.7200  0.8027
    7POPC  H12Y  925   4.522   4.536   4.654 -4.0565  0.3541  2.2068
    7POPC  C313  926   4.368   4.514   4.516  0.2866 -0.2082  0.5513
    7POPC  H13X  927   4.282   4.521   4.586  0.6197 -0.8267  1.0433
    7POPC  H13Y  928   4.324   4.453   4.435 -0.9240  1.0665  0.2044
    7POPC  C314  929   4.391   4.656   4.451  1.0517 -0.3125  0.3712
    7POPC  H14X  930   4.467   4.650   4.370 -1.2152  1.2366 -2.0010
    7POPC  H14Y  931   4.437   4.726   4.525  0.8690 -0.1169  0.2998
    7POPC  C315  932   4.255   4.720   4.417  0.4215 -0.9632 -0.1383
    7POPC  H15X  933   4.200   4.739   4.512 -2.2589  3.2364 -2.1896
    7POPC  H15Y  934   4.212   4.647   4.345 -0.7561 -1.5139  1.0626
    7POPC  C316  935   4.266   4.860   4.347  0.2701 -0.0873 -0.4962
    7POPC  H16X  936   4.306   4.860   4.243 -0.4286  2.3327 -0.8254
    7POPC  H16Y  937   4.316   4.936   4.410  0.4178  0.5507 -1.3767
    7POPC  H16Z  938   4.160   4.893   4.344 -0.2210 -1.6555 -2.2074
    8POPC     N  939   2.992   4.818   6.468 -0.7061 -0.4095 -0.4582
    8POPC   C12  940   3.044   4.675   6.476  0.0106  1.1443  0.5541
    8POPC  H12A  941   3.111   4.668   6.561  0.5289  0.8062  0.1272
    8POPC  H12B  942   3.108   4.650   6.392 -0.8191 -2.0931  0.7497
    8POPC   C13  943   2.901   4.842   6.352  0.0678  0.4522 -0.4480
    8POPC  H13A  944   2.815   4.777   6.353  1.2317 -1.1891 -0.5942
    8POPC  H13B  945   2.860   4.941   6.363  0.3149  0.3662  1.8270
    8POPC  H13C  946   2.951   4.834   6.257 -2.0920 -1.6471 -1.5206
    8POPC   C14  947   2.918   4.848   6.595  0.1216  0.1086  0.0848
    8POPC  H14A  948   2.983   4.843   6.681 -0.2955 -0.3328  0.3789
    8POPC  H14B  949   2.881   4.950   6.593 -0.4380 -0.0986 -0.6342
    8POPC  H14C  950   2.831   4.787   6.611  0.0492  0.6415  1.9955
    8POPC   C15  951   3.113   4.906   6.457 -1.0432 -0.8906  0.3926
    8POPC  H15A  952   3.162   4.886   6.363  0.5519 -0.0676  1.0002
    8POPC  H15B  953   3.182   4.872   6.533 -1.7377 -0.8118  1.0652
    8POPC  H15C  954   3.094   5.010   6.480 -1.4923 -0.7119 -0.7474
    8POPC   C11  955   2.938   4.566   6.472 -0.4326 -0.8035  0.3148
    8POPC  H11A  956   2.868   4.584   6.387 -1.6677  3.3795  1.9608
    8POPC  H11B  957   2.882   4.573   6.567  0.0581  0.0819  0.5484
    8POPC     P  958   2.951   4.316   6.391  0.1640  0.0721  0.4563
    8POPC   O13  959   2.844   4.261   6.469  0.7385  0.2666 -0.3619
    8POPC   O14  960   3.072   4.239   6.359  0.1426 -0.5658  0.5466
    8POPC   O12  961   3.008   4.443   6.466  0.7248  0.9305 -0.4329
    8POPC   O11  962   2.890   4.369   6.254 -0.0148 -0.0564 -0.0638
    8POPC    C1  963   2.977   4.398   6.139  0.4131  0.3209 -0.2070
    8POPC    HA  964   2.965   4.316   6.065 -1.8839 -0.6334  1.0939
    8POPC    HB  965   3.083   4.405   6.172 -0.1943 -0.4493  2.1000
    8POPC    C2  966   2.925   4.528   6.067 -0.2805 -0.4878  0.5966
    8POPC    HS  967   2.921   4.600   6.152 -1.0755 -0.8910  0.9142
    8POPC   O21  968   2.798   4.510   6.006 -0.1770 -0.0194 -0.7007
    8POPC   C21  969   2.723   4.619   5.997  0.6565  0.2834  0.7225
    8POPC   O22  970   2.749   4.733   6.033 -0.2215  0.9808 -0.3125
    8POPC   C22  971   2.586   4.587   5.938  0.0415  0.1856 -0.4166
    8POPC   H2R  972   2.523   4.679   5.941  2.0979  1.6549 -0.3175
    8POPC   H2S  973   2.535   4.519   6.010 -1.5801  0.0567 -1.6276
    8POPC    C3  974   3.035   4.580   5.958  0.1047 -0.0882 -0.3466
    8POPC    HX  975   3.123   4.569   6.025 -0.8962 -0.7976  0.9105
    8POPC    HY  976   3.023   4.689   5.942  1.5184  0.3285  1.1564
    8POPC   O31  977   3.041   4.480   5.847 -0.0169  0.3164 -0.1143
    8POPC   C31  978   2.994   4.532   5.743 -0.5571  0.0181  0.5703
    8POPC   O32  979   2.951   4.647   5.725  1.0075 -0.0636  0.2002
    8POPC   C32  980   3.012   4.426   5.633  0.9411  0.4513  0.4927
    8POPC   H2X  981   2.960   4.335   5.670  0.8282  0.2483 -0.1550
    8POPC   H2Y  982   3.121   4.411   5.619  0.3129 -3.1270 -1.6500
    8POPC   C23  983   2.589   4.527   5.798  0.3562  0.1017 -0.7350
    8POPC   H3R  984   2.498   4.465   5.788  0.2988 -0.0305  0.5245
    8POPC   H3S  985   2.668   4.451   5.778 -0.4019 -0.6816 -0.8009
    8POPC   C24  986   2.578   4.637   5.691 -0.1726 -0.5507 -0.2018
    8POPC   H4R  987   2.665   4.704   5.710  0.4450 -1.6556  1.1315
    8POPC   H4S  988   2.485   4.693   5.713 -0.7463 -1.7946  0.6785
    8POPC   C25  989   2.582   4.579   5.550  0.4197  0.5543  0.7196
    8POPC   H5R  990   2.492   4.514   5.540  1.0717 -0.3393  0.4851
    8POPC   H5S  991   2.670   4.511   5.542 -0.7673 -0.9546 -0.1594
    8POPC   C26  992   2.575   4.695   5.453 -0.2019  0.1769 -0.3138
    8POPC   H6R  993   2.498   4.764   5.494 -0.5717 -1.0453  1.1294
    8POPC   H6S  994   2.545   4.667   5.350  1.2897 -1.3848 -0.3722
    8POPC   C27  995   2.711   4.765   5.447 -0.6843  0.0681 -0.0919
    8POPC   H7R  996   2.790   4.713   5.389  1.1541  1.1936  1.3011
    8POPC   H7S  997   2.750   4.787   5.549  0.9724  1.2702 -0.9330
    8POPC   C28  998   2.687   4.901   5.382 -0.2536 -0.5432 -0.9091
    8POPC   H8R  999   2.609   4.950   5.442 -0.9304 -5.2053  2.5830
    8POPC   H8S 1000   2.634   4.890   5.285 -1.9975  0.8071 -0.1590
    8POPC   C29 1001   2.818   4.973   5.372 -0.7221  0.0841 -1.1354
    8POPC   H91 1002   2.845   5.042   5.454 -0.9353 -0.8445 -0.2716
    8POPC  C210 1003   2.896   4.994   5.268  0.0658 -0.6303  0.1573
    8POPC  H101 1004   2.992   5.043   5.291  1.7444 -1.7323 -3.7405
    8POPC  C211 1005   2.865   4.949   5.121 -0.2784  0.2569 -0.8114
    8POPC  H11R 1006   2.807   4.854   5.128  1.7991 -1.0859 -0.7528
    8POPC  H11S 1007   2.953   4.907   5.068  1.2538 -0.6949  2.2346
    8POPC  C212 1008   2.790   5.068   5.043 -0.2699 -0.0024 -0.0486
    8POPC  H12R 1009   2.690   5.072   5.091 -0.5052  0.8096 -0.5911
    8POPC  H12S 1010   2.784   5.028   4.940  1.5139  0.3371 -0.3222
    8POPC  C213 1011   2.865   5.197   5.044  0.3111  0.0943 -0.2282
    8POPC  H13R 1012   2.881   5.231   5.148 -0.6148  1.4763 -0.5180
    8POPC  H13S 1013   2.809   5.281   4.997  3.1807  2.3629  0.1084
    8POPC  C214 1014   3.005   5.189   4.976  0.2264  0.3189 -0.1674
    8POPC  H14R 1015   3.022   5.082   4.953  1.9472  0.3812  0.6322
    8POPC  H14S 1016   3.076   5.229   5.052  0.1398 -1.7229  1.0410
    8POPC  C215 1017   3.010   5.261   4.838  0.0111 -0.1215  0.6180
    8POPC  H15R 1018   3.098   5.225   4.779 -1.9795 -1.9773 -1.4011
    8POPC  H15S 1019   3.017   5.371   4.851  2.4299 -0.2319  0.6985
    8POPC  C216 1020   2.896   5.232   4.747 -0.2661 -0.2876  0.4173
    8POPC  H16R 1021   2.807   5.292   4.780 -1.7172 -1.8188 -0.5510
    8POPC  H16S 1022   2.876   5.126   4.774 -1.2303  0.5198  3.2233
    8POPC  C217 1023   2.941   5.243   4.600  0.0449  0.1674  0.0531
    8POPC  H17R 1024   3.016   5.163   4.584  0.6139  0.6316  0.3503
    8POPC  H17S 1025   2.996   5.337   4.576  1.2285 -0.8294 -1.2933
    8POPC  C218 1026   2.836   5.220   4.495 -0.0337  0.9047  0.5425
    8POPC  H18R 1027   2.774   5.128   4.495 -1.8462  2.0707 -0.3566
    8POPC  H18S 1028   2.893   5.212   4.399  2.4373 -1.1704  2.0282
    8POPC  H18T 1029   2.764   5.304   4.508  0.2497  1.2810 -0.2558
    8POPC   C33 1030   2.962   4.468   5.491 -0.8463  0.1902 -1.0899
    8POPC   H3X 1031   3.014   4.561   5.458  0.6071 -0.4593 -0.7469
    8POPC   H3Y 1032   2.854   4.487   5.505 -0.4063  0.9601  1.9920
    8POPC   C34 1033   2.986   4.352   5.396 -0.5871 -0.0708 -0.0803
    8POPC   H4X 1034   2.961   4.257   5.450 -0.7796  0.0190 -0.0099
    8POPC   H4Y 1035   3.093   4.370   5.374 -0.4590 -1.4401 -0.6865
    8POPC   C35 1036   2.912   4.366   5.262  0.3084  0.1407 -0.3160
    8POPC   H5X 1037   2.950   4.458   5.212 -0.3864 -0.2561 -1.6219
    8POPC   H5Y 1038   2.804   4.383   5.283  0.7557  1.7821  0.7812
    8POPC   C36 1039   2.911   4.247   5.169  0.0541  0.2508  0.6896
    8POPC   H6X 1040   2.818   4.255   5.109  0.7292  2.1079 -0.1501
    8POPC   H6Y 1041   2.905   4.156   5.234 -1.5868 -0.9382 -1.0060
    8POPC   C37 1042   3.034   4.239   5.074 -0.0086  0.2460 -0.2849
    8POPC   H7X 1043   3.005   4.155   5.007  2.8398  0.1616 -1.5279
    8POPC   H7Y 1044   3.124   4.203   5.127 -2.1719 -0.6765  3.1022
    8POPC   C38 1045   3.061   4.364   4.988 -0.2826  0.1138 -0.2643
    8POPC   H8X 1046   3.082   4.441   5.066 -1.4564 -0.7517  0.9479
    8POPC   H8Y 1047   2.967   4.399   4.939 -2.2760 -0.6132  2.7439
    8POPC   C39 1048   3.185   4.341   4.896  0.5830  0.1283 -0.8209
    8POPC   H9X 1049   3.171   4.265   4.816 -2.1980  1.5450 -1.7962
    8POPC   H9Y 1050   3.263   4.303   4.967 -0.7922  1.7186  1.7109
    8POPC  C310 1051   3.239   4.466   4.832 -0.5772 -0.5859  0.5318
    8POPC  H10X 1052   3.250   4.551   4.903 -2.1321  0.6525 -0.6350
    8POPC  H10Y 1053   3.161   4.495   4.759 -0.0474 -1.1811 -0.2803
    8POPC  C311 1054   3.366   4.436   4.758 -0.8166  0.3250  0.9398
    8POPC  H11X 1055   3.357   4.351   4.687  0.2661  1.1564 -0.2440
    8POPC  H11Y 1056   3.435   4.393   4.833  0.5953 -1.0633 -1.0439
    8POPC  C312 1057   3.416   4.566   4.690 -0.6200  0.3414  0.4735
    8POPC  H12X 1058   3.430   4.634   4.777  1.2176 -0.7099  1.0615
    8POPC  H12Y 1059   3.343   4.608   4.619 -1.1088 -1.5303 -0.1928
    8POPC  C313 1060   3.559   4.548   4.621  0.6010  0.2934 -0.2699
    8POPC  H13X 1061   3.623   4.487   4.688 -0.1024  1.8622  1.9702
    8POPC  H13Y 1062   3.598   4.648   4.595  1.5646 -0.3680 -1.4442
    8POPC  C314 1063   3.561   4.478   4.485  1.0900  0.2235 -0.1690
    8POPC  H14X 1064   3.477   4.523   4.427  2.1189  0.9857 -1.0997
    8POPC  H14Y 1065   3.528   4.376   4.514  1.7900  0.1051  0.2519
    8POPC  C315 1066   3.698   4.461   4.418  0.7967 -0.6777  0.4118
    8POPC  H15X 1067   3.777   4.444   4.494  1.1916 -0.7318 -0.0076
    8POPC  H15Y 1068   3.711   4.558   4.367  0.7748  0.1432  1.9223
    8POPC  C316 1069   3.704   4.346   4.316  0.9928 -0.3600 -0.4746
    8POPC  H16X 1070   3.612   4.331   4.256  0.3499  0.6366  0.2185
    8POPC  H16Y 1071   3.726   4.251   4.369  0.2827 -0.8250 -0.9913
    8POPC  H16Z 1072   3.782   4.371   4.241  1.2019 -0.0940 -0.1711
    9POPC     N 1073   2.764   1.794   6.222 -1.0730 -0.1075  0.5320
    9POPC   C12 1074   2.753   1.937   6.265  0.2379  0.2031  0.6552
    9POPC  H12A 1075   2.839   1.975   6.319 -0.1886  1.8574  0.2398
    9POPC  H12B 1076   2.668   1.933   6.332 -1.5346 -5.0120 -1.4451
    9POPC   C13 1077   2.799   1.717   6.343 -0.4700  0.0458 -0.3257
    9POPC  H13A 1078   2.871   1.766   6.406  1.4940 -2.1107 -0.7599
    9POPC  H13B 1079   2.715   1.706   6.410  0.3332  2.0502  1.0929
    9POPC  H13C 1080   2.842   1.622   6.316 -1.6793 -0.5492 -0.2414
    9POPC   C14 1081   2.650   1.736   6.160  0.5937 -0.2646 -0.2213
    9POPC  H14A 1082   2.612   1.812   6.094  0.8987  0.5644  0.5277
    9POPC  H14B 1083   2.663   1.646   6.102 -0.3146 -1.1928  0.9666
    9POPC  H14C 1084   2.572   1.713   6.230 -1.1306  2.3093 -1.1222
    9POPC   C15 1085   2.875   1.778   6.121 -0.2407  0.1428 -0.6235
    9POPC  H15A 1086   2.960   1.840   6.143  1.4886 -2.0648 -0.7715
    9POPC  H15B 1087   2.845   1.820   6.026  1.0023 -2.9295 -2.5203
    9POPC  H15C 1088   2.900   1.673   6.111 -0.1155 -0.2848  3.0694
    9POPC   C11 1089   2.731   2.045   6.161  0.3595 -0.2904 -0.4135
    9POPC  H11A 1090   2.795   2.029   6.072  0.3673  1.6035 -0.7756
    9POPC  H11B 1091   2.761   2.144   6.201  0.5495 -0.9785  1.2698
    9POPC     P 1092   2.479   2.090   6.187  0.1371 -0.1737 -0.1088
    9POPC   O13 1093   2.522   2.183   6.290 -0.3630 -0.9349  0.3463
    9POPC   O14 1094   2.401   1.972   6.230  0.1466  0.5237 -0.0394
    9POPC   O12 1095   2.601   2.037   6.113 -0.1683 -0.0983 -0.1422
    9POPC   O11 1096   2.395   2.173   6.085 -0.0333  0.1090 -0.3311
    9POPC    C1 1097   2.405   2.168   5.942  0.0356 -0.3116 -0.1170
    9POPC    HA 1098   2.503   2.123   5.918  0.7274  0.7395  0.6225
    9POPC    HB 1099   2.415   2.274   5.911  2.1392  0.2866  2.2673
    9POPC    C2 1100   2.283   2.113   5.870  0.4138  0.2166 -0.7545
    9POPC    HS 1101   2.263   2.006   5.894 -1.1122  0.2820 -1.5839
    9POPC   O21 1102   2.304   2.137   5.734  0.3760 -0.6472 -0.1143
    9POPC   C21 1103   2.373   2.036   5.677  0.4253 -0.1368  0.1168
    9POPC   O22 1104   2.431   1.948   5.738  0.6322 -0.0002  0.0319
    9POPC   C22 1105   2.371   2.055   5.525 -0.1490  0.0247  0.4977
    9POPC   H2R 1106   2.356   2.164   5.510  1.6610  0.1510 -0.6889
    9POPC   H2S 1107   2.292   1.989   5.482 -0.3473  1.1835 -0.9911
    9POPC    C3 1108   2.149   2.182   5.911  0.2605 -0.2009 -1.1245
    9POPC    HX 1109   2.138   2.147   6.016 -0.4008 -0.6531 -1.3336
    9POPC    HY 1110   2.061   2.135   5.861 -0.5068  0.0739 -0.0578
    9POPC   O31 1111   2.155   2.323   5.894  0.0089  0.0710 -0.0577
    9POPC   C31 1112   2.078   2.379   5.802 -0.8453  0.3914 -0.5610
    9POPC   O32 1113   1.989   2.331   5.738  0.0381  0.0087  0.6884
    9POPC   C32 1114   2.125   2.530   5.805 -0.3553  1.2840 -0.4552
    9POPC   H2X 1115   2.234   2.533   5.825 -0.6737  0.9114  1.4747
    9POPC   H2Y 1116   2.062   2.587   5.877 -0.9536  3.4902 -2.5771
    9POPC   C23 1117   2.501   2.018   5.449  0.0449  0.6710  0.2384
    9POPC   H3R 1118   2.539   1.915   5.462  1.4096  0.8200 -2.1065
    9POPC   H3S 1119   2.584   2.079   5.492  1.3921 -2.1707  1.9136
    9POPC   C24 1120   2.487   2.030   5.294 -0.2532 -0.1432  0.0082
    9POPC   H4R 1121   2.442   1.938   5.251  1.3072 -2.0049  2.1615
    9POPC   H4S 1122   2.590   2.026   5.251 -1.1351 -1.2026 -2.1741
    9POPC   C25 1123   2.420   2.154   5.238 -0.0100 -0.0035  0.4175
    9POPC   H5R 1124   2.480   2.242   5.272  0.1094  0.0760  0.0050
    9POPC   H5S 1125   2.316   2.164   5.276 -0.3877 -0.6637 -0.4140
    9POPC   C26 1126   2.421   2.167   5.086  0.7634 -0.0642 -0.3419
    9POPC   H6R 1127   2.376   2.071   5.051 -0.8746  0.3499  0.5019
    9POPC   H6S 1128   2.527   2.165   5.052  1.4967  0.7486  1.7704
    9POPC   C27 1129   2.345   2.298   5.033 -0.1597 -0.1759  0.1747
    9POPC   H7R 1130   2.392   2.382   5.089  1.4133 -0.5221 -0.5757
    9POPC   H7S 1131   2.239   2.299   5.068  0.6375 -0.0248  2.8607
    9POPC   C28 1132   2.356   2.309   4.879 -1.0408  0.7219  0.5514
    9POPC   H8R 1133   2.302   2.223   4.834 -2.7230  1.9076  0.2173
    9POPC   H8S 1134   2.463   2.285   4.860 -1.4615 -1.1975  0.3724
    9POPC   C29 1135   2.318   2.445   4.820 -1.0893  0.6620  0.3008
    9POPC   H91 1136   2.357   2.534   4.871 -0.5349  0.5510  0.0745
    9POPC  C210 1137   2.218   2.465   4.735  0.1440  1.1293  0.1822
    9POPC  H101 1138   2.178   2.562   4.701 -1.6268 -0.0956 -1.4860
    9POPC  C211 1139   2.122   2.363   4.674 -0.4561  0.2482 -0.4539
    9POPC  H11R 1140   2.031   2.354   4.738 -1.0810  0.2107 -1.3279
    9POPC  H11S 1141   2.166   2.262   4.687 -2.4482 -0.5842  0.3203
    9POPC  C212 1142   2.070   2.393   4.535 -0.0008 -0.0783  0.5447
    9POPC  H12R 1143   2.014   2.489   4.528 -0.1759 -0.1883  0.4253
    9POPC  H12S 1144   1.995   2.312   4.521  0.8123 -0.6839 -0.4263
    9POPC  C213 1145   2.180   2.406   4.423 -0.0883  0.0279 -0.6624
    9POPC  H13R 1146   2.246   2.320   4.443  0.8076  1.0306  0.9254
    9POPC  H13S 1147   2.245   2.493   4.449 -0.0952 -0.7520  2.3263
    9POPC  C214 1148   2.134   2.409   4.279 -0.0683 -0.1178 -0.6033
    9POPC  H14R 1149   2.076   2.502   4.262 -0.7579  0.2947  3.1261
    9POPC  H14S 1150   2.062   2.326   4.294  0.7128 -0.2224  3.8757
    9POPC  C215 1151   2.240   2.408   4.167  0.1178  0.4613 -0.6621
    9POPC  H15R 1152   2.182   2.415   4.073 -1.7138 -1.9351  0.1929
    9POPC  H15S 1153   2.293   2.311   4.176 -0.1252  0.2997 -0.9638
    9POPC  C216 1154   2.347   2.522   4.178 -0.9833 -0.5021 -0.8813
    9POPC  H16R 1155   2.420   2.499   4.258  0.3126  1.5056 -1.4102
    9POPC  H16S 1156   2.298   2.618   4.203  1.1029  0.1797  0.8357
    9POPC  C217 1157   2.414   2.563   4.048  0.0099  0.2486 -0.2040
    9POPC  H17R 1158   2.331   2.595   3.981  1.9078  2.7106 -1.5524
    9POPC  H17S 1159   2.471   2.482   3.997 -0.8499  0.0265 -0.8413
    9POPC  C218 1160   2.509   2.682   4.058  0.2412  0.5888 -0.1211
    9POPC  H18R 1161   2.560   2.696   3.961 -1.1632  3.7601 -0.4958
    9POPC  H18S 1162   2.588   2.652   4.130 -0.3590 -0.8031  0.0033
    9POPC  H18T 1163   2.472   2.782   4.089 -0.9964  0.0101  0.3665
    9POPC   C33 1164   2.087   2.594   5.674  0.0377 -0.5980  0.8597
    9POPC   H3X 1165   2.102   2.704   5.682  1.0429 -0.7348  0.9132
    9POPC   H3Y 1166   1.982   2.570   5.644  0.1661 -0.8731  0.6342
    9POPC   C34 1167   2.190   2.550   5.568 -0.5531  0.3363  0.5633
    9POPC   H4X 1168   2.136   2.536   5.473 -1.4818  2.0333  0.8121
    9POPC   H4Y 1169   2.233   2.451   5.596  0.3801  0.5514 -0.0563
    9POPC   C35 1170   2.303   2.651   5.557  0.0262 -0.2692 -0.3708
    9POPC   H5X 1171   2.343   2.673   5.659 -1.0871  2.1551 -0.3954
    9POPC   H5Y 1172   2.248   2.745   5.536  0.0513 -0.1535  0.0544
    9POPC   C36 1173   2.413   2.628   5.462 -0.4111  1.0315  0.0379
    9POPC   H6X 1174   2.444   2.521   5.468 -2.0442  0.5349  0.1750
    9POPC   H6Y 1175   2.498   2.691   5.495 -1.4437  2.0687  0.7903
    9POPC   C37 1176   2.388   2.678   5.318 -0.7695  0.5401 -0.0448
    9POPC   H7X 1177   2.372   2.788   5.319 -0.3784  0.6838 -2.8119
    9POPC   H7Y 1178   2.295   2.632   5.278  0.7610 -0.7480 -2.3549
    9POPC   C38 1179   2.510   2.657   5.229 -0.4212  0.0156  0.4405
    9POPC   H8X 1180   2.526   2.548   5.221 -3.2175 -0.5279  1.1841
    9POPC   H8Y 1181   2.602   2.700   5.275 -0.1453  0.7672 -0.7702
    9POPC   C39 1182   2.485   2.707   5.087  0.6026  0.4016 -0.0488
    9POPC   H9X 1183   2.469   2.817   5.083  2.7533  0.7311 -2.2507
    9POPC   H9Y 1184   2.394   2.659   5.045  0.6921  0.2725 -0.0946
    9POPC  C310 1185   2.601   2.661   4.996 -0.3151  0.1356 -0.9483
    9POPC  H10X 1186   2.576   2.680   4.890  2.0867 -1.0181 -1.7916
    9POPC  H10Y 1187   2.633   2.557   5.014  0.5112  0.4213 -0.7263
    9POPC  C311 1188   2.727   2.752   5.017 -0.4166 -0.2984  0.3409
    9POPC  H11X 1189   2.757   2.756   5.124 -3.1754  0.7916  1.1779
    9POPC  H11Y 1190   2.696   2.857   4.997 -0.2956 -0.0200  1.5406
    9POPC  C312 1191   2.850   2.718   4.931 -0.0148 -0.4418  0.2864
    9POPC  H12X 1192   2.821   2.726   4.824 -0.8556 -0.7747  0.4767
    9POPC  H12Y 1193   2.869   2.609   4.944 -0.9032 -0.5839  0.4422
    9POPC  C313 1194   2.986   2.796   4.961  0.2333  0.5288  0.2529
    9POPC  H13X 1195   3.015   2.785   5.068 -1.3065 -0.7550  0.5841
    9POPC  H13Y 1196   2.970   2.902   4.933 -0.0572  0.2375 -0.7261
    9POPC  C314 1197   3.114   2.744   4.888  0.2108 -0.7630 -0.8871
    9POPC  H14X 1198   3.093   2.775   4.783  0.1981 -0.6274 -0.8446
    9POPC  H14Y 1199   3.122   2.635   4.908 -0.9406 -0.3746  2.2652
    9POPC  C315 1200   3.239   2.815   4.939 -0.1061  0.0303 -1.0307
    9POPC  H15X 1201   3.320   2.739   4.927  1.7982  1.7706  0.1297
    9POPC  H15Y 1202   3.229   2.824   5.050  4.5312 -1.0615 -0.3036
    9POPC  C316 1203   3.269   2.956   4.883 -0.4708  0.4947 -0.2281
    9POPC  H16X 1204   3.288   2.949   4.774 -1.6043  0.1632 -0.4238
    9POPC  H16Y 1205   3.355   2.997   4.939 -0.1113 -0.9739  0.3230
    9POPC  H16Z 1206   3.186   3.030   4.893  0.3467  1.3768  0.1826
   10POPC     N 1207   3.533   4.045   5.959 -0.3032  0.4487 -0.7170
   10POPC   C12 1208   3.642   4.034   5.846 -0.6967 -0.7169 -0.1996
   10POPC  H12A 1209   3.607   4.082   5.756 -0.5237  1.7166  0.9552
   10POPC  H12B 1210   3.670   3.931   5.828 -0.6825 -0.9323  0.9728
   10POPC   C13 1211   3.587   3.985   6.090  0.0774 -0.1406  0.5701
   10POPC  H13A 1212   3.514   3.972   6.168  1.2999 -1.8672  1.5206
   10POPC  H13B 1213   3.623   3.884   6.074 -1.7090 -0.8337  0.7420
   10POPC  H13C 1214   3.660   4.050   6.135 -0.0787  0.6556 -0.3116
   10POPC   C14 1215   3.493   4.187   5.981  0.3303  0.4701 -0.0867
   10POPC  H14A 1216   3.468   4.239   5.889 -0.0207  2.8584  1.2748
   10POPC  H14B 1217   3.420   4.204   6.059 -0.6581  1.3706 -1.1665
   10POPC  H14C 1218   3.576   4.245   6.019  0.8347 -2.3640  3.6260
   10POPC   C15 1219   3.418   3.961   5.923  0.2016 -0.0293  0.8208
   10POPC  H15A 1220   3.336   3.982   5.989 -2.1656 -1.6045 -1.4353
   10POPC  H15B 1221   3.444   3.856   5.935  0.4032  0.0918  1.4891
   10POPC  H15C 1222   3.384   3.983   5.823  0.4599 -4.8217 -0.6226
   10POPC   C11 1223   3.776   4.111   5.869 -0.1504 -0.1031 -0.9503
   10POPC  H11A 1224   3.836   4.066   5.787 -0.9773 -0.1419 -1.5462
   10POPC  H11B 1225   3.809   4.089   5.973  0.7669  3.4466 -0.3624
   10POPC     P 1226   3.802   4.360   5.950 -0.0432 -0.0907  0.0958
   10POPC   O13 1227   3.872   4.297   6.063 -0.2869 -0.1735 -0.0973
   10POPC   O14 1228   3.676   4.433   5.988 -0.4502 -0.0633  0.2385
   10POPC   O12 1229   3.758   4.253   5.844 -0.3887 -1.0578  0.0935
   10POPC   O11 1230   3.905   4.457   5.872  0.0695 -0.0938  0.2820
   10POPC    C1 1231   3.879   4.488   5.733 -0.6768  0.3226 -0.4908
   10POPC    HA 1232   3.902   4.591   5.699  1.1834  0.0649 -0.0828
   10POPC    HB 1233   3.773   4.461   5.710 -0.4851 -2.4284  1.4285
   10POPC    C2 1234   3.968   4.406   5.634  0.3065  0.3490 -0.4675
   10POPC    HS 1235   3.965   4.301   5.670 -0.7255  0.0834 -1.2712
   10POPC   O21 1236   4.097   4.460   5.627  0.2950  0.4922  0.2340
   10POPC   C21 1237   4.201   4.379   5.614 -0.0242 -0.4304  0.2648
   10POPC   O22 1238   4.203   4.257   5.597  0.4604  0.2134  0.0797
   10POPC   C22 1239   4.327   4.471   5.614 -1.1791  0.1222 -0.6405
   10POPC   H2R 1240   4.378   4.466   5.713  1.2979 -3.0298 -1.8779
   10POPC   H2S 1241   4.304   4.578   5.599  0.8102  0.7676  0.4939
   10POPC    C3 1242   3.913   4.410   5.489 -0.7079  0.4016 -0.3915
   10POPC    HX 1243   3.812   4.367   5.473 -0.4426 -0.5444  0.3978
   10POPC    HY 1244   3.972   4.339   5.427 -1.8785 -1.5761  0.6711
   10POPC   O31 1245   3.907   4.544   5.438  0.0961  0.0517  0.8042
   10POPC   C31 1246   3.954   4.569   5.318 -0.3574  0.5828 -0.2309
   10POPC   O32 1247   4.021   4.493   5.251  0.0243  0.2774 -0.5008
   10POPC   C32 1248   3.922   4.713   5.279  1.0843  0.5199 -0.3713
   10POPC   H2X 1249   3.982   4.743   5.191  1.5352  1.2896  0.1828
   10POPC   H2Y 1250   3.946   4.773   5.369 -0.7755 -0.7964  1.0833
   10POPC   C23 1251   4.422   4.423   5.511 -0.0765 -0.2177 -0.1653
   10POPC   H3R 1252   4.432   4.313   5.526  0.2143  0.0645  1.8952
   10POPC   H3S 1253   4.524   4.465   5.525 -0.5171  1.3018 -1.2612
   10POPC   C24 1254   4.365   4.447   5.371 -0.3761 -0.4240 -0.3528
   10POPC   H4R 1255   4.322   4.549   5.360  0.3030  0.2277  2.3179
   10POPC   H4S 1256   4.277   4.380   5.364 -0.8756  0.3338 -1.6841
   10POPC   C25 1257   4.467   4.412   5.273 -0.5699 -0.0140  0.2029
   10POPC   H5R 1258   4.511   4.311   5.291  0.7629  0.3400 -0.9293
   10POPC   H5S 1259   4.554   4.481   5.281 -1.3958  1.2818 -1.5453
   10POPC   C26 1260   4.414   4.420   5.130 -0.3631 -1.1470 -0.3820
   10POPC   H6R 1261   4.310   4.383   5.124 -1.0843  0.7839 -0.5825
   10POPC   H6S 1262   4.474   4.356   5.061  1.4521  0.2532 -0.1807
   10POPC   C27 1263   4.429   4.564   5.071 -0.1016  0.1956 -0.8349
   10POPC   H7R 1264   4.534   4.599   5.072 -0.5772  2.0536  2.9418
   10POPC   H7S 1265   4.373   4.636   5.135  1.8235  0.3059  0.8046
   10POPC   C28 1266   4.376   4.571   4.927  0.5982 -0.5160  0.0260
   10POPC   H8R 1267   4.385   4.467   4.888  0.9684 -0.8224  0.8981
   10POPC   H8S 1268   4.428   4.645   4.863 -1.0615  0.0123 -0.7726
   10POPC   C29 1269   4.230   4.598   4.930 -0.3618  0.2446 -0.9102
   10POPC   H91 1270   4.173   4.533   4.999 -0.3881 -0.3832 -1.5139
   10POPC  C210 1271   4.158   4.701   4.875  1.3184  0.0185  0.5565
   10POPC  H101 1272   4.051   4.707   4.900  0.9362 -2.0088 -0.3942
   10POPC  C211 1273   4.227   4.812   4.795  0.5295 -0.6366 -0.4902
   10POPC  H11R 1274   4.158   4.877   4.738  1.4217  0.7541 -0.0230
   10POPC  H11S 1275   4.305   4.778   4.723  1.6572  0.5756  0.1168
   10POPC  C212 1276   4.291   4.911   4.903 -0.8979  0.2777  0.4635
   10POPC  H12R 1277   4.326   5.003   4.851  1.2366 -0.2455  0.8804
   10POPC  H12S 1278   4.386   4.870   4.944  0.0171 -0.8147 -2.4960
   10POPC  C213 1279   4.197   4.946   5.020 -0.9910 -0.0050 -0.9199
   10POPC  H13R 1280   4.193   4.862   5.092 -0.1175  1.1907  0.6022
   10POPC  H13S 1281   4.093   4.965   4.987 -0.8466  1.6398 -0.5197
   10POPC  C214 1282   4.250   5.069   5.104  0.0801  0.0917 -0.4074
   10POPC  H14R 1283   4.349   5.038   5.145  0.0670 -1.5072 -1.4952
   10POPC  H14S 1284   4.187   5.103   5.189 -0.0054 -0.5509 -0.2064
   10POPC  C215 1285   4.258   5.202   5.028  1.1602 -0.4166  0.0972
   10POPC  H15R 1286   4.153   5.218   4.994 -1.1729 -0.7359  5.9652
   10POPC  H15S 1287   4.331   5.197   4.945  1.3599 -2.7699  0.3622
   10POPC  C216 1288   4.295   5.335   5.107 -0.4652  0.1402 -0.1820
   10POPC  H16R 1289   4.401   5.314   5.132 -0.4863  0.0852 -0.1357
   10POPC  H16S 1290   4.242   5.330   5.205  0.0374 -1.2276  0.0521
   10POPC  C217 1291   4.271   5.465   5.041 -0.0996  0.7519 -0.1105
   10POPC  H17R 1292   4.278   5.552   5.110 -0.9872  1.3521 -0.7518
   10POPC  H17S 1293   4.164   5.470   5.011 -0.4046  4.2111  1.0246
   10POPC  C218 1294   4.365   5.493   4.924  0.3374 -0.1033  0.5870
   10POPC  H18R 1295   4.355   5.417   4.843 -0.6126  1.4612 -0.8119
   10POPC  H18S 1296   4.469   5.485   4.962  0.7278  1.0618 -0.1699
   10POPC  H18T 1297   4.342   5.586   4.869  1.6251 -0.2726 -0.2846
   10POPC   C33 1298   3.767   4.721   5.247  0.6993 -0.3712 -0.6193
   10POPC   H3X 1299   3.712   4.709   5.343  0.3787  1.5414 -0.5283
   10POPC   H3Y 1300   3.722   4.647   5.177 -1.5378  0.9965 -0.7321
   10POPC   C34 1301   3.718   4.858   5.192 -0.3285 -0.1717 -0.0697
   10POPC   H4X 1302   3.735   4.924   5.279  0.6532  0.1834 -0.5193
   10POPC   H4Y 1303   3.610   4.854   5.165 -0.3662  0.1341  0.0247
   10POPC   C35 1304   3.798   4.912   5.076 -0.6137 -0.0481 -0.0877
   10POPC   H5X 1305   3.901   4.931   5.114 -2.3008  1.3937  4.4608
   10POPC   H5Y 1306   3.761   5.015   5.052 -2.0297  0.0229  2.1449
   10POPC   C36 1307   3.779   4.832   4.946 -0.5998  0.2602 -0.4141
   10POPC   H6X 1308   3.668   4.826   4.939 -0.4856 -1.4947 -1.3284
   10POPC   H6Y 1309   3.816   4.728   4.962  0.2434  0.4211 -1.2364
   10POPC   C37 1310   3.838   4.899   4.821 -0.2596  0.2847 -0.3717
   10POPC   H7X 1311   3.948   4.903   4.833 -0.0729 -0.6692 -1.6069
   10POPC   H7Y 1312   3.802   5.004   4.826  1.4537  0.9266 -0.9030
   10POPC   C38 1313   3.786   4.844   4.688 -0.3620  0.2589 -0.4684
   10POPC   H8X 1314   3.680   4.871   4.674 -0.5622 -0.5734 -0.6496
   10POPC   H8Y 1315   3.787   4.734   4.673 -0.9818  0.4288 -1.8821
   10POPC   C39 1316   3.867   4.910   4.570  0.0132  0.5064 -0.3092
   10POPC   H9X 1317   3.968   4.863   4.569 -0.2546 -0.0650 -1.0330
   10POPC   H9Y 1318   3.883   5.019   4.588  0.9177  0.2298  0.6864
   10POPC  C310 1319   3.794   4.895   4.437 -0.0919  0.0605 -0.7268
   10POPC  H10X 1320   3.771   4.789   4.415 -1.6987  0.7319 -2.5580
   10POPC  H10Y 1321   3.870   4.920   4.359  0.6041  0.4839  0.0645
   10POPC  C311 1322   3.674   4.977   4.408  0.3021 -0.3671 -0.4010
   10POPC  H11X 1323   3.699   5.083   4.386  1.3587 -0.0204  2.1197
   10POPC  H11Y 1324   3.622   4.966   4.505  0.5351  1.4039 -0.0477
   10POPC  C312 1325   3.605   4.914   4.284 -0.4694 -0.2069 -0.1546
   10POPC  H12X 1326   3.609   4.805   4.301  1.4630 -0.4531 -1.8892
   10POPC  H12Y 1327   3.671   4.946   4.201 -2.7311  3.3202 -0.8057
   10POPC  C313 1328   3.462   4.936   4.256 -0.3824 -0.5763 -0.9887
   10POPC  H13X 1329   3.404   4.920   4.350 -0.6468  0.4507 -0.9742
   10POPC  H13Y 1330   3.425   4.881   4.167  0.3273  1.3899 -2.5531
   10POPC  C314 1331   3.445   5.084   4.219 -0.7449  0.0258  0.9474
   10POPC  H14X 1332   3.514   5.093   4.133  1.0256 -0.7232  2.2328
   10POPC  H14Y 1333   3.487   5.151   4.298  2.0418 -0.7481  0.2354
   10POPC  C315 1334   3.300   5.118   4.196 -0.7199  0.8701  0.1071
   10POPC  H15X 1335   3.270   5.088   4.094  0.9707 -1.6515  0.2414
   10POPC  H15Y 1336   3.297   5.228   4.205 -2.3561  0.8745 -0.2036
   10POPC  C316 1337   3.205   5.054   4.296  0.2379  0.3803 -0.4588
   10POPC  H16X 1338   3.247   5.093   4.391 -1.1369  0.3248  0.1960
   10POPC  H16Y 1339   3.195   4.944   4.293  0.3969  0.2412  2.2372
   10POPC  H16Z 1340   3.100   5.091   4.295 -0.6153 -1.9166 -0.5071
   11POPC     N 1341   4.227   1.730   6.381  0.0770 -0.4281  0.0035
   11POPC   C12 1342   4.123   1.742   6.268 -0.0505  0.2980  0.7158
   11POPC  H12A 1343   4.089   1.844   6.264  0.0316  0.2853 -1.2209
   11POPC  H12B 1344   4.037   1.680   6.293 -1.4541  1.5399 -0.7889
   11POPC   C13 1345   4.291   1.594   6.397 -0.5706 -0.2784  0.4569
   11POPC  H13A 1346   4.350   1.593   6.488  0.0563  1.1405  0.0879
   11POPC  H13B 1347   4.219   1.516   6.413 -1.1111 -0.3120 -1.8141
   11POPC  H13C 1348   4.354   1.565   6.315 -0.3169 -0.9402  0.8809
   11POPC   C14 1349   4.334   1.833   6.361  0.2490  0.9483  0.2620
   11POPC  H14A 1350   4.403   1.831   6.444 -0.1841  1.2114  0.6289
   11POPC  H14B 1351   4.395   1.809   6.275  1.3708 -1.9318  1.7317
   11POPC  H14C 1352   4.285   1.927   6.344  0.0952  1.1792  1.8625
   11POPC   C15 1353   4.149   1.756   6.508  0.0789 -0.2283  0.0610
   11POPC  H15A 1354   4.076   1.678   6.524  1.2798 -1.5766 -0.8003
   11POPC  H15B 1355   4.092   1.848   6.499  1.7056  0.7869 -0.2923
   11POPC  H15C 1356   4.196   1.757   6.606  0.3442  1.0229 -0.0542
   11POPC   C11 1357   4.173   1.705   6.126 -0.2232  0.1280  0.3402
   11POPC  H11A 1358   4.245   1.783   6.095 -1.7254  1.1873 -0.6385
   11POPC  H11B 1359   4.097   1.725   6.047  0.7500 -0.1169 -0.6912
   11POPC     P 1360   4.154   1.461   6.063  0.4156 -0.0901  0.3201
   11POPC   O13 1361   4.023   1.445   6.131 -0.1975 -0.3286 -0.3514
   11POPC   O14 1362   4.241   1.339   6.065 -0.6844  0.0692 -0.3198
   11POPC   O12 1363   4.240   1.580   6.120 -0.2444  0.0789 -0.3328
   11POPC   O11 1364   4.126   1.508   5.913  0.4011 -0.5751 -0.5624
   11POPC    C1 1365   4.236   1.557   5.843  0.7529 -0.6266 -0.2133
   11POPC    HA 1366   4.314   1.479   5.835  2.2322  0.8322 -0.4261
   11POPC    HB 1367   4.277   1.653   5.883 -0.1007 -0.2431 -0.2319
   11POPC    C2 1368   4.201   1.590   5.690  0.5143  0.3326  0.2519
   11POPC    HS 1369   4.266   1.670   5.649 -1.4423  1.7316 -0.2973
   11POPC   O21 1370   4.064   1.622   5.666  0.1866  0.5543 -0.3919
   11POPC   C21 1371   4.040   1.745   5.694 -0.0934 -0.1777 -0.3867
   11POPC   O22 1372   4.119   1.828   5.744  0.1346  0.1953  0.3566
   11POPC   C22 1373   3.892   1.774   5.665 -0.3358  0.0679 -0.0989
   11POPC   H2R 1374   3.871   1.881   5.688  0.6530  0.5030 -1.0947
   11POPC   H2S 1375   3.843   1.709   5.741  1.1895 -2.3431 -1.0609
   11POPC    C3 1376   4.235   1.464   5.607  0.3967  0.3087  0.7027
   11POPC    HX 1377   4.171   1.383   5.648  0.5799 -0.4138 -0.3880
   11POPC    HY 1378   4.342   1.438   5.624  0.0597 -2.7277 -1.0611
   11POPC   O31 1379   4.217   1.492   5.466 -0.1932  0.6501 -0.1261
   11POPC   C31 1380   4.124   1.426   5.400  0.4479  0.8703  0.1632
   11POPC   O32 1381   4.049   1.334   5.445 -0.1521 -0.2808  0.0329
   11POPC   C32 1382   4.138   1.463   5.251  0.0792  0.3590 -0.1577
   11POPC   H2X 1383   4.248   1.471   5.233  0.8590 -3.0516  2.1123
   11POPC   H2Y 1384   4.098   1.565   5.231 -1.3655 -0.2274 -0.3200
   11POPC   C23 1385   3.850   1.736   5.524 -0.3457 -0.1128  0.2006
   11POPC   H3R 1386   3.739   1.742   5.517 -0.4906 -0.6984  1.7245
   11POPC   H3S 1387   3.877   1.629   5.509  0.5463 -0.1733  2.0046
   11POPC   C24 1388   3.913   1.840   5.423 -0.0789  0.6263  0.1279
   11POPC   H4R 1389   4.023   1.827   5.436 -0.2761 -2.8049 -0.6840
   11POPC   H4S 1390   3.879   1.943   5.448  0.4525  0.4182  1.8332
   11POPC   C25 1391   3.897   1.797   5.275 -0.5631  0.0997  0.0580
   11POPC   H5R 1392   3.790   1.805   5.247 -1.2150 -1.5372  1.8352
   11POPC   H5S 1393   3.926   1.693   5.250 -2.5246 -0.0531 -1.8479
   11POPC   C26 1394   3.973   1.874   5.161  0.4586  0.0278  0.3429
   11POPC   H6R 1395   4.080   1.845   5.168  0.0502 -1.2572  1.7064
   11POPC   H6S 1396   3.951   1.980   5.186 -1.5072 -0.2701  0.0839
   11POPC   C27 1397   3.908   1.857   5.022 -0.2865 -0.2736  0.8157
   11POPC   H7R 1398   3.799   1.875   5.018 -0.1185  0.7760  0.5399
   11POPC   H7S 1399   3.928   1.755   4.982  3.0380  0.7327 -0.4500
   11POPC   C28 1400   3.973   1.945   4.914  0.0610 -0.2199  0.2688
   11POPC   H8R 1401   4.080   1.935   4.940  0.0472  0.5101  0.6232
   11POPC   H8S 1402   3.934   2.049   4.927 -0.2864 -0.4382  1.0560
   11POPC   C29 1403   3.942   1.903   4.770 -0.9693 -0.3869 -0.0211
   11POPC   H91 1404   3.928   1.795   4.756 -0.4070 -0.7390  1.8955
   11POPC  C210 1405   3.923   1.977   4.661  0.2954 -0.1023  0.3709
   11POPC  H101 1406   3.886   1.929   4.569 -0.6991  0.4325  0.4746
   11POPC  C211 1407   3.932   2.130   4.647  1.0136  0.5269 -0.5860
   11POPC  H11R 1408   3.970   2.157   4.748 -0.3968  0.9116 -0.1374
   11POPC  H11S 1409   3.829   2.169   4.640  0.6590 -0.5760 -1.7014
   11POPC  C212 1410   4.005   2.185   4.526 -0.0027 -0.4548  0.3216
   11POPC  H12R 1411   3.949   2.153   4.436 -1.9311 -0.3160  1.4192
   11POPC  H12S 1412   4.107   2.141   4.522  0.0972 -0.4611  2.1337
   11POPC  C213 1413   4.022   2.338   4.546  0.3770 -0.3004  0.2285
   11POPC  H13R 1414   4.052   2.364   4.650 -0.1159 -0.0109  0.3005
   11POPC  H13S 1415   3.921   2.384   4.537 -1.0839 -1.7110  5.4330
   11POPC  C214 1416   4.127   2.401   4.457 -0.8383  0.2282 -0.5220
   11POPC  H14R 1417   4.104   2.386   4.350  0.3178 -4.0428 -0.3844
   11POPC  H14S 1418   4.225   2.353   4.482 -1.2133 -0.0265  0.5077
   11POPC  C215 1419   4.144   2.545   4.500 -0.1538 -0.0595  0.5742
   11POPC  H15R 1420   4.176   2.541   4.607  0.9097  2.0418  0.3741
   11POPC  H15S 1421   4.042   2.585   4.484  0.3454  0.1592 -2.5313
   11POPC  C216 1422   4.226   2.626   4.402  0.6588  0.1777 -0.3268
   11POPC  H16R 1423   4.179   2.620   4.301  2.3328  0.0241 -1.1442
   11POPC  H16S 1424   4.329   2.584   4.403  0.8545  0.6538  0.9464
   11POPC  C217 1425   4.242   2.770   4.444 -0.0750 -0.0952  0.3916
   11POPC  H17R 1426   4.283   2.780   4.548  0.3979  0.0856  0.1939
   11POPC  H17S 1427   4.148   2.828   4.436  0.0467 -0.0634 -1.0048
   11POPC  C218 1428   4.337   2.845   4.342 -0.6708  0.0818 -0.0068
   11POPC  H18R 1429   4.394   2.924   4.394 -1.5646  1.2507 -0.7565
   11POPC  H18S 1430   4.283   2.910   4.269 -0.7836 -0.8781 -0.8162
   11POPC  H18T 1431   4.410   2.773   4.298 -0.5324 -1.3965  2.4727
   11POPC   C33 1432   4.068   1.367   5.157  0.5522  0.2648 -0.4255
   11POPC   H3X 1433   3.966   1.355   5.199  0.6211  1.6491  0.1761
   11POPC   H3Y 1434   4.123   1.271   5.150 -0.7610 -0.5398 -0.0458
   11POPC   C34 1435   4.048   1.423   5.018  0.0003  0.1857 -0.0787
   11POPC   H4X 1436   4.139   1.478   4.986  0.5668  0.0315  1.2246
   11POPC   H4Y 1437   3.959   1.490   5.013 -0.0848  0.0581 -0.3029
   11POPC   C35 1438   4.029   1.314   4.907 -0.9129  0.1381 -0.3168
   11POPC   H5X 1439   3.954   1.239   4.940 -0.0092 -0.8880 -0.5401
   11POPC   H5Y 1440   4.122   1.253   4.899  1.0621  3.1895 -2.8094
   11POPC   C36 1441   3.990   1.378   4.771 -0.3142  0.0996  0.3146
   11POPC   H6X 1442   3.918   1.455   4.803 -0.8950  1.0493 -2.9589
   11POPC   H6Y 1443   3.941   1.307   4.702  0.3592  0.3838 -0.4789
   11POPC   C37 1444   4.092   1.471   4.705  0.3817  0.2476 -0.0984
   11POPC   H7X 1445   4.177   1.405   4.678  0.3532 -0.4541  1.3969
   11POPC   H7Y 1446   4.124   1.552   4.775  3.6680 -0.0630 -1.0356
   11POPC   C38 1447   4.032   1.539   4.580 -0.7228  0.0287 -0.3954
   11POPC   H8X 1448   3.928   1.576   4.590 -0.9292 -0.9157  1.2826
   11POPC   H8Y 1449   4.026   1.466   4.496 -0.7135  1.0677 -1.3316
   11POPC   C39 1450   4.125   1.651   4.531  0.2727 -0.2602  0.3382
   11POPC   H9X 1451   4.227   1.606   4.531 -0.1861 -1.3278  0.1796
   11POPC   H9Y 1452   4.122   1.729   4.610 -1.4441  1.0122 -0.9304
   11POPC  C310 1453   4.085   1.720   4.402 -0.3822 -1.0316  0.2100
   11POPC  H10X 1454   3.978   1.744   4.416  0.2806  1.2774  1.8677
   11POPC  H10Y 1455   4.086   1.654   4.312 -0.4778 -0.8359  0.0645
   11POPC  C311 1456   4.156   1.849   4.371  0.4298 -0.0942  0.3034
   11POPC  H11X 1457   4.265   1.832   4.382  0.5102 -0.0245 -0.3524
   11POPC  H11Y 1458   4.150   1.928   4.448  2.5410  1.2962 -0.8644
   11POPC  C312 1459   4.126   1.904   4.230 -0.2024  0.4910 -0.6889
   11POPC  H12X 1460   4.184   1.833   4.168  0.0473  0.7737 -0.7796
   11POPC  H12Y 1461   4.171   2.003   4.212  3.1475 -1.1346 -2.1542
   11POPC  C313 1462   3.982   1.895   4.181  0.0227  0.2109  0.3273
   11POPC  H13X 1463   3.914   1.951   4.248 -1.0612 -1.9804  1.1312
   11POPC  H13Y 1464   3.959   1.786   4.178 -3.0109  0.6971 -3.7250
   11POPC  C314 1465   3.958   1.957   4.038 -0.1647 -0.2102  0.1551
   11POPC  H14X 1466   4.033   1.925   3.962  0.9314 -1.5937  1.7584
   11POPC  H14Y 1467   3.987   2.064   4.047 -0.9209  0.0054  0.0360
   11POPC  C315 1468   3.824   1.948   3.972  0.1311  0.3571  0.6153
   11POPC  H15X 1469   3.747   1.986   4.042  0.0271  0.5160  0.4153
   11POPC  H15Y 1470   3.794   1.844   3.950  0.9852  0.0235  0.9715
   11POPC  C316 1471   3.833   2.019   3.840  0.1431 -0.7890 -0.1798
   11POPC  H16X 1472   3.932   1.988   3.800  1.3839  0.7519  1.5091
   11POPC  H16Y 1473   3.812   2.128   3.843  1.6804 -0.4782 -0.1046
   11POPC  H16Z 1474   3.757   1.987   3.766  0.9814 -1.5430 -0.7372
   12POPC     N 1475   4.377   2.374   6.449 -0.1009 -0.8227 -0.3165
   12POPC   C12 1476   4.413   2.412   6.308  0.0268  0.3724  0.1425
   12POPC  H12A 1477   4.320   2.432   6.259 -1.4733 -0.8616  2.2945
   12POPC  H12B 1478   4.455   2.324   6.260  0.9900 -1.1116  3.3505
   12POPC   C13 1479   4.301   2.484   6.517 -0.5315 -0.6709  0.6105
   12POPC  H13A 1480   4.217   2.515   6.457  0.2344 -0.6959 -0.5301
   12POPC  H13B 1481   4.269   2.453   6.615  1.1154  0.0301  1.4282
   12POPC  H13C 1482   4.377   2.559   6.533  0.5020 -1.9224  1.8706
   12POPC   C14 1483   4.305   2.247   6.449 -1.0079 -0.4412  0.2198
   12POPC  H14A 1484   4.349   2.170   6.388 -0.2530  0.2408 -0.1134
   12POPC  H14B 1485   4.292   2.213   6.551  1.5221 -1.4831  0.2589
   12POPC  H14C 1486   4.204   2.272   6.420 -0.4397  2.6034  0.5463
   12POPC   C15 1487   4.509   2.350   6.520 -0.4996  1.0281 -0.2499
   12POPC  H15A 1488   4.572   2.435   6.498 -0.0906  0.7998  0.0128
   12POPC  H15B 1489   4.548   2.254   6.490  2.4273  1.1469  2.5670
   12POPC  H15C 1490   4.499   2.330   6.626  0.0911 -1.3710 -0.5857
   12POPC   C11 1491   4.501   2.537   6.295  0.4919  0.1695 -0.3110
   12POPC  H11A 1492   4.461   2.614   6.364 -1.7378 -0.6241 -0.6570
   12POPC  H11B 1493   4.481   2.586   6.197 -3.1968 -0.1271  0.1696
   12POPC     P 1494   4.717   2.405   6.230  0.4993 -0.1071 -0.3475
   12POPC   O13 1495   4.680   2.270   6.272 -0.0980 -0.0511 -0.5088
   12POPC   O14 1496   4.858   2.447   6.226 -0.1915 -0.5393 -0.0824
   12POPC   O12 1497   4.638   2.510   6.324  0.3066  0.5684 -0.1179
   12POPC   O11 1498   4.665   2.434   6.080 -0.2684 -0.3878  0.0133
   12POPC    C1 1499   4.619   2.332   5.994 -0.0109  0.8441 -0.4921
   12POPC    HA 1500   4.578   2.375   5.900 -0.4521  0.7887 -0.3317
   12POPC    HB 1501   4.542   2.265   6.037  0.5456 -0.0627 -0.8880
   12POPC    C2 1502   4.731   2.234   5.948 -0.5260  0.4423 -0.4707
   12POPC    HS 1503   4.794   2.193   6.030  0.8367 -0.9313 -2.1071
   12POPC   O21 1504   4.823   2.311   5.868  0.2755  0.3685  0.4385
   12POPC   C21 1505   4.929   2.232   5.827  0.3079 -0.8365  0.3132
   12POPC   O22 1506   4.950   2.119   5.859 -0.4230 -0.3793  0.0235
   12POPC   C22 1507   4.981   2.306   5.703 -0.3172  0.2585 -0.2467
   12POPC   H2R 1508   5.079   2.350   5.730 -0.2265  2.4303 -3.5355
   12POPC   H2S 1509   4.920   2.394   5.673 -1.1108 -1.0918 -2.9871
   12POPC    C3 1510   4.661   2.114   5.865 -0.2400  1.0087  0.0826
   12POPC    HX 1511   4.606   2.040   5.926 -1.0906 -0.3012 -2.1446
   12POPC    HY 1512   4.743   2.061   5.811  0.2316  1.7579  0.0395
   12POPC   O31 1513   4.565   2.174   5.772 -0.3031  0.2138 -0.5057
   12POPC   C31 1514   4.485   2.089   5.711  0.2865  0.0938 -0.2675
   12POPC   O32 1515   4.488   1.966   5.714  0.2286 -0.8119  0.5393
   12POPC   C32 1516   4.391   2.167   5.627 -1.6287  0.4591  0.0615
   12POPC   H2X 1517   4.460   2.209   5.550 -0.8212 -0.6525  0.1574
   12POPC   H2Y 1518   4.368   2.257   5.687 -0.3717 -0.0661  1.3785
   12POPC   C23 1519   4.994   2.216   5.574  0.8639 -0.0730  0.8669
   12POPC   H3R 1520   5.051   2.125   5.604  1.0024 -1.0715 -2.0928
   12POPC   H3S 1521   5.059   2.267   5.501  3.2285  0.4182  3.1677
   12POPC   C24 1522   4.859   2.173   5.506  0.0298  0.2193  1.0522
   12POPC   H4R 1523   4.782   2.144   5.580 -1.4421 -1.9131 -1.1643
   12POPC   H4S 1524   4.873   2.082   5.445  0.5294 -0.1887  1.7651
   12POPC   C25 1525   4.812   2.286   5.409 -0.8600 -0.1377  1.1345
   12POPC   H5R 1526   4.900   2.300   5.343 -1.4434 -2.2058 -0.1785
   12POPC   H5S 1527   4.806   2.385   5.460 -1.6930  0.4983 -0.1570
   12POPC   C26 1528   4.692   2.263   5.318  0.0362 -0.9323  0.3737
   12POPC   H6R 1529   4.690   2.346   5.245 -1.9297 -0.0692  1.3140
   12POPC   H6S 1530   4.596   2.279   5.372  0.1077 -1.7748  0.7612
   12POPC   C27 1531   4.680   2.135   5.241 -0.2640 -0.1239 -0.0520
   12POPC   H7R 1532   4.780   2.087   5.236 -0.2467 -0.3191  1.5459
   12POPC   H7S 1533   4.653   2.162   5.137 -3.0647  1.0574  0.8692
   12POPC   C28 1534   4.593   2.034   5.309 -0.2213 -0.2371  0.2182
   12POPC   H8R 1535   4.487   2.064   5.297 -0.0876  0.2398  0.2193
   12POPC   H8S 1536   4.613   2.027   5.418 -0.4010 -0.4605  0.2377
   12POPC   C29 1537   4.609   1.897   5.245 -0.5280 -0.6261  0.1947
   12POPC   H91 1538   4.700   1.847   5.282  0.0230  0.1737 -0.0614
   12POPC  C210 1539   4.528   1.825   5.162 -0.9093 -0.6981  0.2549
   12POPC  H101 1540   4.560   1.723   5.138  3.8588  0.2319  1.5291
   12POPC  C211 1541   4.394   1.868   5.108 -0.0196 -0.2434 -0.1822
   12POPC  H11R 1542   4.341   1.927   5.185  0.3157  1.9093 -1.5105
   12POPC  H11S 1543   4.342   1.775   5.076  0.4847  0.2712 -2.7836
   12POPC  C212 1544   4.397   1.960   4.987 -0.1487  0.3245 -0.0122
   12POPC  H12R 1545   4.459   2.046   5.018 -1.5397  0.4172  2.8619
   12POPC  H12S 1546   4.290   1.988   4.970  0.1782  1.1938 -0.7049
   12POPC  C213 1547   4.445   1.900   4.852 -0.1336 -0.8126 -0.2733
   12POPC  H13R 1548   4.377   1.823   4.811  0.6238 -0.6882 -1.8304
   12POPC  H13S 1549   4.540   1.844   4.868 -0.0484 -0.0070  2.6231
   12POPC  C214 1550   4.447   1.997   4.736 -0.6900  0.2471  0.0936
   12POPC  H14R 1551   4.340   2.017   4.714 -0.7693 -0.7024 -0.4793
   12POPC  H14S 1552   4.487   1.945   4.646 -1.7502  1.8555 -1.3666
   12POPC  C215 1553   4.527   2.115   4.758  0.2173 -0.7445  0.3111
   12POPC  H15R 1554   4.633   2.082   4.763  0.7921  1.0111  0.7192
   12POPC  H15S 1555   4.496   2.170   4.850 -0.1643  0.0104 -0.2593
   12POPC  C216 1556   4.520   2.207   4.638 -0.1853 -0.8388  0.6346
   12POPC  H16R 1557   4.412   2.211   4.615 -0.6688 -0.7202  2.7030
   12POPC  H16S 1558   4.572   2.161   4.551  1.7117  0.8913  0.7629
   12POPC  C217 1559   4.575   2.347   4.659  0.1825  0.7134 -0.1772
   12POPC  H17R 1560   4.679   2.334   4.697  0.6205  0.4119 -1.4286
   12POPC  H17S 1561   4.514   2.407   4.730 -1.0140 -1.0189  0.3391
   12POPC  C218 1562   4.563   2.415   4.519  0.8483 -0.4913  0.2519
   12POPC  H18R 1563   4.461   2.400   4.477  1.6457 -1.0411 -1.6024
   12POPC  H18S 1564   4.638   2.365   4.455  0.5863  0.1070 -0.5471
   12POPC  H18T 1565   4.582   2.525   4.523  0.4736 -0.2751 -2.1979
   12POPC   C33 1566   4.280   2.090   5.563  0.7410 -0.3084 -0.0114
   12POPC   H3X 1567   4.223   2.060   5.653  3.5165 -2.2017  1.2824
   12POPC   H3Y 1568   4.302   1.995   5.509 -0.4348 -2.1344  2.4858
   12POPC   C34 1569   4.195   2.180   5.468 -0.3646 -0.3804  0.2927
   12POPC   H4X 1570   4.170   2.274   5.522  0.9642 -0.9655  2.0434
   12POPC   H4Y 1571   4.094   2.139   5.447 -0.7608  0.7134 -0.0023
   12POPC   C35 1572   4.264   2.209   5.339 -0.0600 -0.6710 -0.4848
   12POPC   H5X 1573   4.305   2.119   5.288 -1.7058 -1.1586 -1.0107
   12POPC   H5Y 1574   4.342   2.286   5.357 -1.3993  0.7149 -0.3907
   12POPC   C36 1575   4.160   2.267   5.236 -1.0160 -0.2440 -0.0475
   12POPC   H6X 1576   4.132   2.369   5.270  1.8886  0.9303 -0.9374
   12POPC   H6Y 1577   4.067   2.206   5.224 -0.9521  0.0358 -2.4393
   12POPC   C37 1578   4.220   2.286   5.095  0.0364  0.0966 -0.6731
   12POPC   H7X 1579   4.135   2.317   5.029 -0.2396 -0.0458 -0.3867
   12POPC   H7Y 1580   4.267   2.190   5.065  1.7747  0.0107  2.0060
   12POPC   C38 1581   4.333   2.404   5.101  0.2178  1.3472 -0.4616
   12POPC   H8X 1582   4.432   2.361   5.125 -1.2259 -2.0064  0.0692
   12POPC   H8Y 1583   4.292   2.478   5.172 -0.8325  0.5496 -0.2048
   12POPC   C39 1584   4.337   2.462   4.956 -0.7771  0.0215  0.1133
   12POPC   H9X 1585   4.236   2.496   4.924 -0.3618 -0.2879 -1.5755
   12POPC   H9Y 1586   4.380   2.374   4.904  0.1283 -0.1956  1.1690
   12POPC  C310 1587   4.437   2.580   4.935  0.3487 -0.6320 -0.2462
   12POPC  H10X 1588   4.398   2.671   4.987  0.0869 -0.9992  0.2141
   12POPC  H10Y 1589   4.442   2.609   4.828 -1.0889 -0.0883 -0.1920
   12POPC  C311 1590   4.575   2.546   4.992 -0.3887  0.3248 -0.5227
   12POPC  H11X 1591   4.608   2.452   4.944  2.4956  1.4472 -0.9465
   12POPC  H11Y 1592   4.551   2.538   5.101 -0.4180 -0.7793 -0.6012
   12POPC  C312 1593   4.665   2.661   4.964 -0.1435 -0.2252  0.0738
   12POPC  H12X 1594   4.612   2.758   4.976 -1.1648 -0.7495 -0.0613
   12POPC  H12Y 1595   4.698   2.649   4.858  1.1506 -0.0885  0.4497
   12POPC  C313 1596   4.797   2.661   5.048  0.4523  0.4680 -0.1787
   12POPC  H13X 1597   4.867   2.742   5.019  0.0036  0.4782 -1.2532
   12POPC  H13Y 1598   4.851   2.566   5.033 -1.1686 -0.3054 -1.4566
   12POPC  C314 1599   4.765   2.672   5.203  0.2281  0.1994  0.0177
   12POPC  H14X 1600   4.676   2.608   5.223  0.7746 -2.1278 -3.9206
   12POPC  H14Y 1601   4.737   2.777   5.223 -3.4280 -0.7205  0.5552
   12POPC  C315 1602   4.878   2.637   5.309  1.1041 -0.6172  1.1670
   12POPC  H15X 1603   4.958   2.711   5.290 -0.8262  1.3471  0.2544
   12POPC  H15Y 1604   4.913   2.531   5.312  0.9468 -0.6689  1.2141
   12POPC  C316 1605   4.829   2.671   5.454 -0.4700  0.6816 -1.1823
   12POPC  H16X 1606   4.768   2.762   5.436 -2.0370  0.2914  1.5525
   12POPC  H16Y 1607   4.924   2.692   5.508 -0.2433 -0.8008 -0.9598
   12POPC  H16Z 1608   4.766   2.601   5.513 -0.2493  0.9735 -0.5902
   13POPC     N 1609   1.151   3.843   6.314  0.2708 -0.0273  0.3262
   13POPC   C12 1610   1.037   3.938   6.275  0.4760 -0.0079  0.7626
   13POPC  H12A 1611   0.957   3.919   6.346  0.9912 -2.7897  0.7368
   13POPC  H12B 1612   0.994   3.915   6.179 -1.2503  2.5093  0.8394
   13POPC   C13 1613   1.264   3.855   6.211 -0.1735 -0.4043  0.1258
   13POPC  H13A 1614   1.310   3.952   6.204 -2.5471  0.7675 -0.4669
   13POPC  H13B 1615   1.345   3.789   6.236 -0.2570 -0.3321  0.5858
   13POPC  H13C 1616   1.223   3.824   6.116  1.4440 -1.0879 -0.3697
   13POPC   C14 1617   1.200   3.867   6.447 -0.3113 -0.1280 -0.1875
   13POPC  H14A 1618   1.233   3.970   6.450  1.3903 -0.4790 -2.9440
   13POPC  H14B 1619   1.120   3.852   6.518  1.0525 -0.1593  1.4097
   13POPC  H14C 1620   1.289   3.810   6.467 -0.9931 -1.3678 -0.5915
   13POPC   C15 1621   1.112   3.700   6.301 -0.0919 -0.1095  0.3107
   13POPC  H15A 1622   1.194   3.635   6.325  1.1636  1.4715  0.5227
   13POPC  H15B 1623   1.109   3.687   6.194 -0.8504  2.3637 -0.0317
   13POPC  H15C 1624   1.021   3.671   6.351  0.3656 -0.3496  1.0243
   13POPC   C11 1625   1.075   4.087   6.278 -0.4707 -0.1472  0.9824
   13POPC  H11A 1626   1.133   4.126   6.364  2.0292 -0.4649 -0.4768
   13POPC  H11B 1627   0.978   4.140   6.288 -0.7054 -0.2268 -0.6755
   13POPC     P 1628   1.085   4.148   6.021 -0.0638 -0.0929  0.1805
   13POPC   O13 1629   1.027   4.282   6.018 -0.5932 -0.2174 -0.0277
   13POPC   O14 1630   0.993   4.038   5.991  0.0742 -0.3724 -0.3926
   13POPC   O12 1631   1.140   4.134   6.166  0.6492 -0.2350  0.0933
   13POPC   O11 1632   1.212   4.131   5.938 -0.4378 -0.5372 -0.3296
   13POPC    C1 1633   1.267   4.012   5.876  0.1168  0.1162  0.0309
   13POPC    HA 1634   1.202   3.926   5.904 -0.6022  0.4309 -0.6198
   13POPC    HB 1635   1.371   3.990   5.907 -0.2150 -0.7823  0.5457
   13POPC    C2 1636   1.250   4.028   5.721  0.2712  0.0041 -0.0293
   13POPC    HS 1637   1.286   3.937   5.668  0.5497  0.2602 -0.2777
   13POPC   O21 1638   1.326   4.141   5.682  0.3548 -0.1564 -0.2298
   13POPC   C21 1639   1.461   4.123   5.688  0.2357  1.0106 -0.7067
   13POPC   O22 1640   1.514   4.020   5.702  0.2117  0.9746  0.3954
   13POPC   C22 1641   1.533   4.255   5.692 -0.0306 -0.6292 -0.1341
   13POPC   H2R 1642   1.540   4.280   5.800 -2.1823 -2.8497  0.6432
   13POPC   H2S 1643   1.473   4.335   5.644  1.4278 -0.6328 -2.0596
   13POPC    C3 1644   1.104   4.044   5.680  0.6362  0.1092  0.2763
   13POPC    HX 1645   1.060   4.140   5.714 -0.6769 -0.3974  0.0803
   13POPC    HY 1646   1.038   3.969   5.729  0.2991 -1.7663 -2.7814
   13POPC   O31 1647   1.087   4.032   5.538  0.9496 -0.2051 -0.0235
   13POPC   C31 1648   0.951   4.042   5.510  0.3143 -0.7447  0.2684
   13POPC   O32 1649   0.864   4.052   5.591 -0.1193 -0.0845  0.3335
   13POPC   C32 1650   0.944   4.048   5.356 -0.6710  0.0951  0.1385
   13POPC   H2X 1651   1.045   4.032   5.314 -0.5722  1.0994 -0.0463
   13POPC   H2Y 1652   0.918   4.153   5.329 -1.7931 -0.5289 -1.4172
   13POPC   C23 1653   1.678   4.264   5.645 -0.9600  0.0976  0.6017
   13POPC   H3R 1654   1.738   4.183   5.693 -1.1635 -1.4481 -1.6345
   13POPC   H3S 1655   1.704   4.367   5.680  1.2838  0.3469 -1.4889
   13POPC   C24 1656   1.683   4.242   5.491 -0.2612  0.2400 -0.4747
   13POPC   H4R 1657   1.597   4.300   5.452 -1.7957 -2.1860 -0.9719
   13POPC   H4S 1658   1.674   4.133   5.469 -3.0314  0.5024 -1.0446
   13POPC   C25 1659   1.817   4.305   5.426 -0.3024 -0.1192  0.1940
   13POPC   H5R 1660   1.903   4.236   5.441 -0.6990 -1.6068 -3.2723
   13POPC   H5S 1661   1.840   4.407   5.463 -1.0647 -0.2565  1.0754
   13POPC   C26 1662   1.828   4.320   5.273 -0.0207  0.1144  0.2356
   13POPC   H6R 1663   1.920   4.370   5.238 -0.1780 -0.3773 -0.9206
   13POPC   H6S 1664   1.745   4.388   5.245 -1.8344 -2.9153 -2.4668
   13POPC   C27 1665   1.799   4.191   5.200 -0.5513  0.4534  0.5455
   13POPC   H7R 1666   1.691   4.170   5.184  0.2401 -1.6787 -2.7894
   13POPC   H7S 1667   1.837   4.103   5.255  0.6497  0.5163 -0.1477
   13POPC   C28 1668   1.869   4.193   5.058  0.2764  0.0506  0.0661
   13POPC   H8R 1669   1.973   4.214   5.091 -0.2043  3.3944 -0.2158
   13POPC   H8S 1670   1.826   4.278   5.000 -1.7436 -1.2173 -0.3825
   13POPC   C29 1671   1.855   4.068   4.978 -0.9419  0.3655 -0.1310
   13POPC   H91 1672   1.752   4.055   4.941 -0.3128 -3.5244 -0.9502
   13POPC  C210 1673   1.953   3.975   4.949  0.4882 -0.5836  0.1440
   13POPC  H101 1674   1.918   3.889   4.891  1.4827  0.7486 -2.6067
   13POPC  C211 1675   2.091   3.971   5.012 -0.2160 -0.0847  0.0145
   13POPC  H11R 1676   2.132   4.067   5.051 -0.0399 -0.7744  1.5796
   13POPC  H11S 1677   2.157   3.953   4.924 -0.4911  0.3749 -0.2934
   13POPC  C212 1678   2.119   3.863   5.112  0.7236  0.8759  0.4487
   13POPC  H12R 1679   2.225   3.850   5.141 -0.1074 -2.6411  2.5654
   13POPC  H12S 1680   2.101   3.763   5.068  0.9549  1.0247  0.0114
   13POPC  C213 1681   2.049   3.887   5.247  0.5329 -0.0806 -0.2726
   13POPC  H13R 1682   1.938   3.878   5.239  0.5118 -1.1725  0.8909
   13POPC  H13S 1683   2.079   3.990   5.274  1.8936 -1.2581  3.2932
   13POPC  C214 1684   2.106   3.796   5.358  0.3163 -0.1944 -0.1443
   13POPC  H14R 1685   2.215   3.816   5.358  0.0460  2.4004 -4.2744
   13POPC  H14S 1686   2.077   3.692   5.332 -2.3245  0.3639  0.3245
   13POPC  C215 1687   2.033   3.820   5.496 -0.5802  0.2708 -0.1425
   13POPC  H15R 1688   2.083   3.912   5.532  5.7019 -2.0071 -1.7046
   13POPC  H15S 1689   2.063   3.741   5.569  2.1832 -1.1630 -2.6062
   13POPC  C216 1690   1.878   3.823   5.499 -0.7676  0.4713 -0.2500
   13POPC  H16R 1691   1.839   3.909   5.440 -0.2273 -1.0275 -2.9183
   13POPC  H16S 1692   1.850   3.839   5.605  0.9891  0.9252  0.1901
   13POPC  C217 1693   1.804   3.701   5.439 -0.2787 -0.0569 -0.3799
   13POPC  H17R 1694   1.825   3.681   5.332  0.6080 -2.0877  0.1267
   13POPC  H17S 1695   1.696   3.727   5.440 -0.2853 -0.0712  0.6802
   13POPC  C218 1696   1.825   3.570   5.511 -0.3223  0.6249 -0.3856
   13POPC  H18R 1697   1.927   3.532   5.489 -0.1587 -0.3442  1.8466
   13POPC  H18S 1698   1.762   3.495   5.458 -0.0400  1.5275 -2.1035
   13POPC  H18T 1699   1.811   3.573   5.621  3.5474  1.3530  0.2212
   13POPC   C33 1700   0.838   3.955   5.289 -0.1478  0.3718  0.5257
   13POPC   H3X 1701   0.752   3.951   5.359  0.9418 -0.6031  1.8521
   13POPC   H3Y 1702   0.884   3.854   5.283 -0.1352  0.4348 -1.0227
   13POPC   C34 1703   0.805   4.006   5.150  0.3143 -0.4240 -0.3751
   13POPC   H4X 1704   0.736   4.092   5.162  1.0616  0.2043 -0.4293
   13POPC   H4Y 1705   0.751   3.925   5.097  0.4057 -1.4180  1.0019
   13POPC   C35 1706   0.928   4.038   5.062 -0.0651  0.5307  0.3783
   13POPC   H5X 1707   0.992   4.118   5.104  1.3274  0.4975 -1.5367
   13POPC   H5Y 1708   0.877   4.078   4.971 -1.5466 -1.4533  0.2627
   13POPC   C36 1709   1.017   3.913   5.045 -0.8339  0.7414  0.1146
   13POPC   H6X 1710   0.948   3.826   5.038  0.7283 -0.4595 -1.1014
   13POPC   H6Y 1711   1.074   3.909   5.141 -0.2946  1.4181 -0.1708
   13POPC   C37 1712   1.107   3.909   4.921  0.0345  0.5011 -0.9287
   13POPC   H7X 1713   1.192   3.979   4.935 -1.5896  2.3140  0.3479
   13POPC   H7Y 1714   1.042   3.942   4.837  0.6935  1.4196 -1.0960
   13POPC   C38 1715   1.158   3.769   4.885 -0.0571 -0.7470 -0.7381
   13POPC   H8X 1716   1.078   3.697   4.860 -0.3664 -0.6684  0.0021
   13POPC   H8Y 1717   1.209   3.728   4.975 -0.9549 -2.0077 -0.7819
   13POPC   C39 1718   1.253   3.780   4.767  0.2501 -0.2299  0.4453
   13POPC   H9X 1719   1.331   3.853   4.796 -0.2484  0.2424  0.6145
   13POPC   H9Y 1720   1.192   3.814   4.681 -0.5637 -0.6876  0.8245
   13POPC  C310 1721   1.319   3.646   4.725 -0.4698  0.4214  0.1541
   13POPC  H10X 1722   1.239   3.570   4.712 -0.5936  0.8814 -2.0676
   13POPC  H10Y 1723   1.387   3.613   4.807 -1.3042 -0.8637  0.3678
   13POPC  C311 1724   1.395   3.662   4.598 -0.7211 -0.1349 -0.8222
   13POPC  H11X 1725   1.464   3.745   4.626 -0.9325  0.7084 -2.6560
   13POPC  H11Y 1726   1.332   3.703   4.515  1.0293  1.4253 -1.4621
   13POPC  C312 1727   1.483   3.548   4.546 -0.4033  0.2459 -0.1147
   13POPC  H12X 1728   1.412   3.469   4.516  1.2887 -1.6430  0.5916
   13POPC  H12Y 1729   1.549   3.517   4.630  0.4324  1.3226 -0.3522
   13POPC  C313 1730   1.554   3.601   4.417 -0.2824 -0.6460  0.7363
   13POPC  H13X 1731   1.604   3.694   4.454 -0.0211 -0.2699 -0.5334
   13POPC  H13Y 1732   1.468   3.642   4.360  1.2215  2.2167  0.3232
   13POPC  C314 1733   1.645   3.499   4.348 -0.0037 -0.5610 -0.4377
   13POPC  H14X 1734   1.701   3.535   4.259  0.2022 -1.1903 -0.5696
   13POPC  H14Y 1735   1.569   3.422   4.321 -1.2411  0.5123 -0.1238
   13POPC  C315 1736   1.752   3.430   4.431  0.2321  0.1106 -0.7220
   13POPC  H15X 1737   1.708   3.392   4.526 -2.7364  1.0724 -1.6008
   13POPC  H15Y 1738   1.829   3.507   4.455  0.3288 -0.9889  3.2595
   13POPC  C316 1739   1.809   3.304   4.364  0.0128 -0.4111  0.1102
   13POPC  H16X 1740   1.864   3.329   4.271  1.4062 -1.4965  0.5980
   13POPC  H16Y 1741   1.733   3.227   4.340  0.7163 -0.9152 -0.5281
   13POPC  H16Z 1742   1.879   3.260   4.439 -0.8616  0.7068  1.6595
   14POPC     N 1743   1.954   3.722   6.356  0.0309  0.3183 -0.2521
   14POPC   C12 1744   2.051   3.830   6.401 -0.5544  0.3882 -0.7582
   14POPC  H12A 1745   2.150   3.790   6.379  0.4483  1.7741  1.0232
   14POPC  H12B 1746   2.042   3.846   6.507 -0.7471 -0.7971 -0.5773
   14POPC   C13 1747   1.974   3.687   6.212  0.6516  0.1453  0.1262
   14POPC  H13A 1748   1.899   3.626   6.165  2.1751 -2.7048  1.1309
   14POPC  H13B 1749   1.969   3.780   6.158  1.5062  0.1470  0.0386
   14POPC  H13C 1750   2.074   3.656   6.185 -0.5715 -1.2824 -3.2043
   14POPC   C14 1751   1.979   3.600   6.439  0.6274 -0.6679  0.5173
   14POPC  H14A 1752   1.993   3.632   6.541  0.2819 -0.2271  0.4303
   14POPC  H14B 1753   1.902   3.530   6.414 -0.0658  0.3245 -0.2350
   14POPC  H14C 1754   2.075   3.563   6.406  1.1006  0.0080  1.0925
   14POPC   C15 1755   1.806   3.765   6.371  0.5873  1.2802 -0.9109
   14POPC  H15A 1756   1.744   3.693   6.320 -0.6653  2.2640 -0.8325
   14POPC  H15B 1757   1.790   3.864   6.332 -1.1699  1.2874 -0.2420
   14POPC  H15C 1758   1.781   3.770   6.476 -2.9386 -1.0921 -1.4732
   14POPC   C11 1759   2.035   3.968   6.340  0.4480 -0.0668 -0.1776
   14POPC  H11A 1760   2.037   3.962   6.230 -1.8378 -0.1028 -0.2685
   14POPC  H11B 1761   2.127   4.024   6.369  0.6423 -0.0077 -0.9033
   14POPC     P 1762   1.894   4.176   6.429 -0.0168  0.0012  0.1764
   14POPC   O13 1763   1.991   4.213   6.531  0.2023 -0.8420  0.0169
   14POPC   O14 1764   1.756   4.204   6.467  0.5464  0.1854  0.3604
   14POPC   O12 1765   1.916   4.022   6.388  0.3790  0.2915  0.4538
   14POPC   O11 1766   1.917   4.251   6.293 -0.4470 -0.6780  0.7436
   14POPC    C1 1767   1.825   4.219   6.176 -0.0965  0.0659 -0.2238
   14POPC    HA 1768   1.721   4.252   6.195 -1.0850 -2.1421 -1.3655
   14POPC    HB 1769   1.820   4.108   6.166 -2.7505  0.1257 -0.3200
   14POPC    C2 1770   1.872   4.284   6.039 -0.5340  0.3768  0.5652
   14POPC    HS 1771   1.795   4.261   5.962 -1.2482  1.8377  0.8026
   14POPC   O21 1772   2.010   4.248   6.003 -0.4920  0.5316 -0.0464
   14POPC   C21 1773   2.011   4.136   5.925  0.4606  0.9062 -0.3335
   14POPC   O22 1774   1.913   4.071   5.897 -0.2234 -0.1596  0.4340
   14POPC   C22 1775   2.151   4.101   5.888 -0.0094  0.8371  0.0427
   14POPC   H2R 1776   2.137   3.999   5.845  2.9507  1.5984 -3.1883
   14POPC   H2S 1777   2.212   4.090   5.980 -2.5907 -2.4031  1.5866
   14POPC    C3 1778   1.874   4.436   6.062  0.2721 -0.1720 -0.1271
   14POPC    HX 1779   1.928   4.476   6.150 -0.7856  2.0284 -0.3952
   14POPC    HY 1780   1.771   4.461   6.096  0.5467  0.0325  0.5654
   14POPC   O31 1781   1.888   4.515   5.939 -0.0715  0.1826 -0.0083
   14POPC   C31 1782   2.017   4.547   5.917  0.6684 -0.3713  0.0294
   14POPC   O32 1783   2.113   4.523   5.984 -0.4354  0.8494 -0.1509
   14POPC   C32 1784   2.005   4.651   5.804  0.1477 -0.6499  0.1301
   14POPC   H2X 1785   1.973   4.749   5.846 -0.0349 -0.7980  0.3429
   14POPC   H2Y 1786   1.927   4.609   5.737  2.9592 -1.9539 -2.5295
   14POPC   C23 1787   2.227   4.193   5.788  0.2119  0.4270 -0.2911
   14POPC   H3R 1788   2.330   4.152   5.775 -0.1368 -0.8028  0.6644
   14POPC   H3S 1789   2.233   4.292   5.838  0.6238  1.3430 -2.0639
   14POPC   C24 1790   2.161   4.201   5.654  0.0972 -0.3480  0.0147
   14POPC   H4R 1791   2.055   4.233   5.665 -0.3896 -2.0701  0.7273
   14POPC   H4S 1792   2.157   4.098   5.613  0.4474 -1.0477  1.6575
   14POPC   C25 1793   2.217   4.298   5.548  0.0352 -0.0857  0.7609
   14POPC   H5R 1794   2.325   4.303   5.572  0.1660  1.3883 -0.0214
   14POPC   H5S 1795   2.188   4.403   5.568 -0.0644 -0.0260  0.3107
   14POPC   C26 1796   2.200   4.249   5.401  0.4357  0.7608  0.3343
   14POPC   H6R 1797   2.116   4.296   5.346  0.5289  0.0707 -0.4284
   14POPC   H6S 1798   2.192   4.138   5.407  0.7790  0.7517  0.6738
   14POPC   C27 1799   2.332   4.270   5.328 -0.2156 -0.2672 -0.2382
   14POPC   H7R 1800   2.422   4.218   5.366  0.9251  1.4801 -0.4252
   14POPC   H7S 1801   2.362   4.377   5.321 -2.3021  0.4092  0.4781
   14POPC   C28 1802   2.322   4.218   5.182 -0.5403 -0.2034 -0.4415
   14POPC   H8R 1803   2.241   4.267   5.124  0.6863  1.7789 -0.5586
   14POPC   H8S 1804   2.279   4.116   5.183 -2.9606  0.7050 -2.4477
   14POPC   C29 1805   2.446   4.216   5.101  0.4128 -0.0197 -0.1998
   14POPC   H91 1806   2.482   4.116   5.075 -0.2497 -0.0519 -1.0200
   14POPC  C210 1807   2.513   4.326   5.061  0.1128 -0.4027 -0.0061
   14POPC  H101 1808   2.612   4.308   5.017  1.1735  1.9260  1.2004
   14POPC  C211 1809   2.499   4.473   5.100 -0.3393 -0.3445 -0.7262
   14POPC  H11R 1810   2.489   4.487   5.209  1.0868 -0.3879 -0.5664
   14POPC  H11S 1811   2.406   4.511   5.054 -1.5388 -0.9507  1.0843
   14POPC  C212 1812   2.620   4.561   5.072 -0.0176 -0.1226  0.2023
   14POPC  H12R 1813   2.702   4.548   5.146  1.4365  0.0547 -1.3104
   14POPC  H12S 1814   2.601   4.669   5.091  2.2908  0.0932  1.6371
   14POPC  C213 1815   2.666   4.558   4.931 -0.9921 -0.1399 -0.1226
   14POPC  H13R 1816   2.572   4.566   4.873 -0.1268  1.5860 -1.3688
   14POPC  H13S 1817   2.725   4.469   4.898 -0.7520 -1.1575  2.7498
   14POPC  C214 1818   2.760   4.682   4.893 -0.1959  0.0975 -0.3362
   14POPC  H14R 1819   2.839   4.679   4.971  0.4716 -1.2893 -1.0296
   14POPC  H14S 1820   2.696   4.771   4.908  0.5332  0.9664 -2.1497
   14POPC  C215 1821   2.830   4.675   4.755 -0.1606 -0.2705  0.3046
   14POPC  H15R 1822   2.746   4.708   4.690 -0.4352 -1.6198 -0.0371
   14POPC  H15S 1823   2.869   4.575   4.729 -0.2042 -0.0543 -0.6402
   14POPC  C216 1824   2.940   4.782   4.756 -0.0683  0.4913  0.2985
   14POPC  H16R 1825   2.998   4.758   4.848  0.5481  0.8776  0.0180
   14POPC  H16S 1826   2.903   4.886   4.769  0.1649  0.8358 -1.5859
   14POPC  C217 1827   3.021   4.801   4.629  0.0428 -0.4435  0.4256
   14POPC  H17R 1828   2.961   4.829   4.540  1.0554 -1.9869 -0.8005
   14POPC  H17S 1829   3.054   4.703   4.588  0.6763  0.6788 -1.9374
   14POPC  C218 1830   3.138   4.901   4.640 -0.1753 -0.0171 -0.1961
   14POPC  H18R 1831   3.211   4.866   4.717  0.3788  0.6071 -0.4344
   14POPC  H18S 1832   3.100   5.002   4.667 -0.5417 -0.5500  1.4298
   14POPC  H18T 1833   3.197   4.905   4.546  0.4240  0.1792  0.1824
   14POPC   C33 1834   2.139   4.678   5.740 -0.2183 -0.1543  0.4088
   14POPC   H3X 1835   2.188   4.585   5.704  0.1062 -0.6514  2.0204
   14POPC   H3Y 1836   2.211   4.736   5.803  1.8954 -2.6683  0.4916
   14POPC   C34 1837   2.116   4.762   5.612  0.1856  0.0891 -1.4596
   14POPC   H4X 1838   2.220   4.784   5.578  0.4980 -0.9159 -1.2168
   14POPC   H4Y 1839   2.050   4.851   5.622 -1.4207 -1.2183  0.5356
   14POPC   C35 1840   2.058   4.672   5.502 -0.8904  0.3367  0.2492
   14POPC   H5X 1841   1.954   4.635   5.518 -0.1962 -2.8774 -1.7853
   14POPC   H5Y 1842   2.126   4.584   5.504  1.0590  1.7837 -0.3524
   14POPC   C36 1843   2.079   4.721   5.359 -0.1105 -0.3901  0.4509
   14POPC   H6X 1844   2.182   4.761   5.348 -0.4122  0.3205  0.1841
   14POPC   H6Y 1845   2.007   4.804   5.342  1.5220  1.0758  0.3940
   14POPC   C37 1846   2.066   4.612   5.256  0.2511 -0.4694  0.6602
   14POPC   H7X 1847   1.960   4.579   5.246  0.5518 -1.1622 -0.4145
   14POPC   H7Y 1848   2.112   4.520   5.298 -0.6127 -0.1523  2.4148
   14POPC   C38 1849   2.117   4.641   5.115 -0.1203  0.0187  1.0441
   14POPC   H8X 1850   2.228   4.633   5.119 -0.0120 -2.3075 -2.5854
   14POPC   H8Y 1851   2.078   4.739   5.081 -0.5908 -0.6187 -0.3432
   14POPC   C39 1852   2.058   4.543   5.012  0.6682  0.1186 -0.3798
   14POPC   H9X 1853   1.952   4.575   5.021  0.8138  0.5747 -0.2832
   14POPC   H9Y 1854   2.076   4.435   5.030  4.2454  0.3422 -1.8744
   14POPC  C310 1855   2.132   4.552   4.880  0.1091  0.0582 -0.2385
   14POPC  H10X 1856   2.242   4.537   4.884  0.1595  0.1660 -0.9775
   14POPC  H10Y 1857   2.124   4.655   4.837 -0.6195 -0.7828 -2.2593
   14POPC  C311 1858   2.102   4.448   4.762 -0.1796  0.4565 -0.1543
   14POPC  H11X 1859   2.159   4.492   4.677 -1.4406  1.2619 -0.6141
   14POPC  H11Y 1860   1.991   4.457   4.758 -0.3186 -1.1380 -0.6406
   14POPC  C312 1861   2.145   4.307   4.801 -0.7019 -0.4932 -0.8404
   14POPC  H12X 1862   2.074   4.272   4.880  2.9755 -0.0797  2.9987
   14POPC  H12Y 1863   2.247   4.311   4.845 -1.3565  0.0909  0.7169
   14POPC  C313 1864   2.129   4.211   4.677  0.1149  0.0070  0.7253
   14POPC  H13X 1865   2.053   4.259   4.612 -0.3584 -0.2991  1.0488
   14POPC  H13Y 1866   2.090   4.112   4.711  1.0742  0.5414  3.7633
   14POPC  C314 1867   2.261   4.193   4.598  0.5309  0.3167 -0.2650
   14POPC  H14X 1868   2.330   4.127   4.655  0.4602  1.6133  1.4409
   14POPC  H14Y 1869   2.316   4.290   4.596  2.2288 -0.6016 -0.2831
   14POPC  C315 1870   2.240   4.144   4.459 -0.1257 -1.2452 -0.0500
   14POPC  H15X 1871   2.222   4.225   4.385 -1.2281 -2.1629 -0.8148
   14POPC  H15Y 1872   2.143   4.091   4.449 -0.2272 -0.6974 -2.6761
   14POPC  C316 1873   2.353   4.058   4.398 -0.2264  0.0581 -0.3042
   14POPC  H16X 1874   2.350   4.053   4.287 -0.2189 -1.1721 -0.2650
   14POPC  H16Y 1875   2.341   3.957   4.443 -1.6334  1.0210  1.6787
   14POPC  H16Z 1876   2.447   4.097   4.443 -1.2739  1.1347  1.0652
   15POPC     N 1877   2.406   1.252   6.771 -0.2927  0.2999  0.6057
   15POPC   C12 1878   2.280   1.326   6.734 -0.1668 -0.0135  0.5923
   15POPC  H12A 1879   2.226   1.335   6.826  1.1115  1.0254  1.2729
   15POPC  H12B 1880   2.212   1.267   6.674  0.2713  0.2497 -0.1863
   15POPC   C13 1881   2.498   1.335   6.856 -0.2515 -0.0109 -0.4379
   15POPC  H13A 1882   2.440   1.389   6.929 -1.3841 -1.2577 -0.3634
   15POPC  H13B 1883   2.577   1.270   6.893  1.2731  0.4868 -2.6231
   15POPC  H13C 1884   2.540   1.416   6.798 -0.7767  1.7008  1.4694
   15POPC   C14 1885   2.365   1.127   6.845 -0.0284  0.5661 -0.3852
   15POPC  H14A 1886   2.283   1.085   6.789  0.3046  0.2203 -0.6189
   15POPC  H14B 1887   2.447   1.057   6.856 -0.3111  0.0314 -1.5863
   15POPC  H14C 1888   2.327   1.153   6.943 -0.8798 -1.9083  0.0071
   15POPC   C15 1889   2.488   1.208   6.648 -0.0409 -0.6469  0.2506
   15POPC  H15A 1890   2.520   1.301   6.604 -2.3015  0.9427  1.7722
   15POPC  H15B 1891   2.424   1.156   6.579 -0.2463  3.1924 -2.8264
   15POPC  H15C 1892   2.570   1.146   6.681  1.5152  1.9158  1.5465
   15POPC   C11 1893   2.291   1.463   6.673 -0.5195 -1.0088  0.3989
   15POPC  H11A 1894   2.366   1.516   6.735  0.3353 -1.0850 -0.5516
   15POPC  H11B 1895   2.195   1.517   6.687  1.1921  2.3743  0.2387
   15POPC     P 1896   2.374   1.586   6.476 -0.2153 -0.6159  0.1938
   15POPC   O13 1897   2.515   1.641   6.497 -0.0942  0.2961 -0.6831
   15POPC   O14 1898   2.257   1.679   6.500  0.2914 -0.0748  0.1800
   15POPC   O12 1899   2.344   1.451   6.544 -0.2050 -0.3938  0.2574
   15POPC   O11 1900   2.371   1.536   6.324  0.0548 -0.5168 -0.8455
   15POPC    C1 1901   2.239   1.509   6.273 -0.1160 -0.2080  0.0229
   15POPC    HA 1902   2.186   1.605   6.256 -1.1887 -0.3064  2.3984
   15POPC    HB 1903   2.177   1.450   6.344  1.8284 -0.0642  1.9644
   15POPC    C2 1904   2.251   1.430   6.141  0.1979  0.0739 -0.5993
   15POPC    HS 1905   2.314   1.344   6.172  0.6806  0.5531 -0.2319
   15POPC   O21 1906   2.309   1.518   6.039  0.6867  0.0659  0.2293
   15POPC   C21 1907   2.393   1.462   5.955 -0.7637 -0.7952 -0.0959
   15POPC   O22 1908   2.436   1.348   5.964 -0.3187  0.5862  0.2228
   15POPC   C22 1909   2.435   1.563   5.845 -0.5127  0.0929  0.0658
   15POPC   H2R 1910   2.543   1.578   5.867 -0.5776  0.2280  0.3034
   15POPC   H2S 1911   2.370   1.651   5.865  0.9695  0.9304  1.4712
   15POPC    C3 1912   2.115   1.364   6.089 -0.1260 -0.4032  0.0044
   15POPC    HX 1913   2.053   1.455   6.075  0.1146 -0.2386  0.0127
   15POPC    HY 1914   2.070   1.306   6.173 -0.8428  0.5264  0.2752
   15POPC   O31 1915   2.128   1.287   5.968 -0.3975  0.2573  0.3459
   15POPC   C31 1916   2.136   1.150   5.986  0.3002 -0.0181 -0.3025
   15POPC   O32 1917   2.146   1.100   6.094  0.1811  0.1827  0.1176
   15POPC   C32 1918   2.135   1.080   5.850 -0.4177  0.1263  0.3147
   15POPC   H2X 1919   2.052   1.006   5.846  1.1344 -1.6833  0.1160
   15POPC   H2Y 1920   2.229   1.023   5.835  0.2676  1.4419 -0.6606
   15POPC   C23 1921   2.432   1.492   5.707 -0.2299 -0.2777 -0.9347
   15POPC   H3R 1922   2.327   1.492   5.670  0.1175  1.1804 -2.0495
   15POPC   H3S 1923   2.473   1.389   5.707  0.7004  0.0785 -1.6698
   15POPC   C24 1924   2.500   1.582   5.607  0.4485 -0.2305  0.6821
   15POPC   H4R 1925   2.607   1.597   5.631  0.7924 -1.5841  0.1059
   15POPC   H4S 1926   2.455   1.683   5.599 -0.9787 -0.9745 -2.0670
   15POPC   C25 1927   2.490   1.525   5.470  0.2796 -0.0273  0.1417
   15POPC   H5R 1928   2.383   1.517   5.442  0.1775 -0.5685  0.6582
   15POPC   H5S 1929   2.541   1.426   5.469  0.0640 -0.1294 -0.6514
   15POPC   C26 1930   2.551   1.605   5.354  0.2243  0.2264 -0.0833
   15POPC   H6R 1931   2.526   1.713   5.346 -0.7913  0.1301  1.3986
   15POPC   H6S 1932   2.513   1.557   5.261 -1.3492 -0.5965  0.9435
   15POPC   C27 1933   2.702   1.594   5.353  0.0758  0.1973  0.3696
   15POPC   H7R 1934   2.741   1.490   5.346 -0.6904 -0.1076  0.5925
   15POPC   H7S 1935   2.730   1.643   5.449  2.7257 -1.9039  0.8014
   15POPC   C28 1936   2.772   1.676   5.246 -0.6698 -0.0549 -0.1002
   15POPC   H8R 1937   2.879   1.689   5.274  0.3286 -1.2602 -2.9873
   15POPC   H8S 1938   2.732   1.780   5.249  0.6649  0.4721 -0.1241
   15POPC   C29 1939   2.766   1.608   5.116  0.7565  0.1394 -0.1302
   15POPC   H91 1940   2.734   1.504   5.131  2.1975 -0.5978 -1.7949
   15POPC  C210 1941   2.798   1.652   4.996  0.2038 -0.4223  0.6558
   15POPC  H101 1942   2.771   1.592   4.908  1.7078 -0.5438  0.2418
   15POPC  C211 1943   2.850   1.790   4.947  0.0318  0.0839  0.0564
   15POPC  H11R 1944   2.955   1.781   4.912  0.2178  0.6622  0.4479
   15POPC  H11S 1945   2.846   1.863   5.031 -1.7802 -0.1261  0.1998
   15POPC  C212 1946   2.775   1.848   4.828 -0.0281 -0.3599  0.5076
   15POPC  H12R 1947   2.785   1.771   4.748 -0.0615  2.5355 -2.4844
   15POPC  H12S 1948   2.833   1.938   4.796  0.9818 -0.6696  1.3951
   15POPC  C213 1949   2.627   1.884   4.850  0.2320 -0.2734  0.1870
   15POPC  H13R 1950   2.614   1.967   4.922 -0.1810 -1.7019  1.8272
   15POPC  H13S 1951   2.560   1.803   4.885 -2.6425  1.6442 -0.5662
   15POPC  C214 1952   2.586   1.936   4.710  0.2465  0.6705 -0.5103
   15POPC  H14R 1953   2.612   1.861   4.633 -1.9157  0.0312 -0.6982
   15POPC  H14S 1954   2.634   2.030   4.676  0.2050  0.7170 -0.4409
   15POPC  C215 1955   2.428   1.950   4.706 -0.7403 -0.3274 -0.0914
   15POPC  H15R 1956   2.383   1.995   4.797 -0.7756  2.0111 -1.1956
   15POPC  H15S 1957   2.392   1.845   4.705  0.6610 -0.8518  1.0670
   15POPC  C216 1958   2.381   2.022   4.573 -0.5913 -0.2494 -0.1117
   15POPC  H16R 1959   2.379   2.133   4.584 -0.2841 -0.3968  1.8834
   15POPC  H16S 1960   2.272   1.999   4.574 -0.7967  0.5595  2.1744
   15POPC  C217 1961   2.444   1.966   4.444  0.1334 -1.0272  0.0621
   15POPC  H17R 1962   2.436   1.855   4.443 -1.0222 -0.9783 -2.2140
   15POPC  H17S 1963   2.548   1.997   4.422 -0.3920 -0.2540 -1.5379
   15POPC  C218 1964   2.360   2.023   4.321  0.0378 -0.0114  0.4672
   15POPC  H18R 1965   2.413   2.006   4.225 -0.3908  0.8086  0.0812
   15POPC  H18S 1966   2.363   2.132   4.343  0.2650  0.3771 -1.3806
   15POPC  H18T 1967   2.254   1.989   4.317  0.2425 -0.4855 -2.1468
   15POPC   C33 1968   2.130   1.163   5.718  0.5361 -0.0810 -0.1708
   15POPC   H3X 1969   2.170   1.114   5.626 -0.6841  0.4830 -1.0323
   15POPC   H3Y 1970   2.179   1.262   5.723  0.1814  0.2217 -1.9924
   15POPC   C34 1971   1.972   1.190   5.681  0.3507  0.1182 -0.4708
   15POPC   H4X 1972   1.918   1.231   5.769  1.3758  1.0074 -0.2332
   15POPC   H4Y 1973   1.937   1.091   5.645 -1.8640  1.4398 -2.2867
   15POPC   C35 1974   1.960   1.304   5.580  0.0700  0.2848  0.7372
   15POPC   H5X 1975   2.014   1.278   5.487 -1.1445  2.8278 -0.7966
   15POPC   H5Y 1976   1.985   1.403   5.625 -0.7317  0.8968 -0.1074
   15POPC   C36 1977   1.816   1.309   5.523  0.4851 -0.2181 -0.4047
   15POPC   H6X 1978   1.755   1.384   5.577 -1.0833 -1.9688  0.4001
   15POPC   H6Y 1979   1.781   1.203   5.531  0.2302 -0.1079 -0.0237
   15POPC   C37 1980   1.797   1.334   5.374 -0.1505 -0.0928 -0.4304
   15POPC   H7X 1981   1.693   1.311   5.344  0.2963 -1.1579 -1.2176
   15POPC   H7Y 1982   1.862   1.266   5.315 -1.1986 -2.1362  0.6826
   15POPC   C38 1983   1.829   1.479   5.326 -0.3223 -0.0712 -0.2993
   15POPC   H8X 1984   1.936   1.506   5.325 -0.2857 -0.2150 -0.9969
   15POPC   H8Y 1985   1.775   1.547   5.395  1.1375 -0.0883  0.9104
   15POPC   C39 1986   1.784   1.496   5.177  0.5970 -0.1467  0.1141
   15POPC   H9X 1987   1.686   1.445   5.166  0.2278  0.8455 -1.5443
   15POPC   H9Y 1988   1.856   1.442   5.113  0.5102  1.2282 -1.1966
   15POPC  C310 1989   1.777   1.644   5.143 -0.2530  0.4091 -0.4653
   15POPC  H10X 1990   1.879   1.685   5.160  0.5928 -0.8933 -2.1020
   15POPC  H10Y 1991   1.692   1.696   5.193 -0.9516 -1.1825  0.0405
   15POPC  C311 1992   1.751   1.671   4.989 -0.3910  0.0536  0.9283
   15POPC  H11X 1993   1.843   1.652   4.929 -0.5551  2.2178 -0.1061
   15POPC  H11Y 1994   1.745   1.781   4.974  0.9559  0.2892  1.8906
   15POPC  C312 1995   1.621   1.612   4.936  0.3688  0.4513  0.3436
   15POPC  H12X 1996   1.535   1.639   5.000  2.2456  1.7370  2.4829
   15POPC  H12Y 1997   1.627   1.501   4.927 -2.4896  0.3760 -2.4992
   15POPC  C313 1998   1.576   1.664   4.790  0.7159 -0.0538 -0.5254
   15POPC  H13X 1999   1.657   1.645   4.717  1.1592  0.2973 -0.1371
   15POPC  H13Y 2000   1.556   1.773   4.803 -0.2575 -0.2640 -0.2069
   15POPC  C314 2001   1.443   1.592   4.756 -0.0547  0.4288 -0.2204
   15POPC  H14X 2002   1.379   1.604   4.846 -0.6379 -0.0840 -0.5598
   15POPC  H14Y 2003   1.471   1.485   4.750  2.3951  1.0458 -4.1524
   15POPC  C315 2004   1.387   1.648   4.628 -0.3327 -0.2461  0.1382
   15POPC  H15X 2005   1.462   1.660   4.546 -0.4460 -2.8490 -0.4555
   15POPC  H15Y 2006   1.351   1.750   4.649  1.8282  0.2392  1.9013
   15POPC  C316 2007   1.286   1.545   4.569 -0.3902 -0.0304  0.0035
   15POPC  H16X 2008   1.273   1.578   4.463  0.1401 -0.1313 -0.0983
   15POPC  H16Y 2009   1.189   1.548   4.622 -0.0610 -1.0969  0.6760
   15POPC  H16Z 2010   1.334   1.445   4.573  0.5065  0.4337  2.1817
   16POPC     N 2011   1.448   2.265   6.757  0.4554  0.3078 -0.0299
   16POPC   C12 2012   1.568   2.305   6.669  0.0234 -0.0266  0.2461
   16POPC  H12A 2013   1.644   2.228   6.674  1.4845  1.1568 -1.8766
   16POPC  H12B 2014   1.618   2.389   6.714  0.8746 -0.3185 -0.1291
   16POPC   C13 2015   1.505   2.187   6.873  0.0878  0.0977  0.5467
   16POPC  H13A 2016   1.535   2.085   6.854 -2.9072 -1.5949  3.7086
   16POPC  H13B 2017   1.579   2.251   6.919 -1.9306  1.7120  1.7191
   16POPC  H13C 2018   1.421   2.174   6.940 -1.9385 -3.9452 -2.3277
   16POPC   C14 2019   1.377   2.388   6.807 -0.3809  0.4901  0.0064
   16POPC  H14A 2020   1.436   2.447   6.875 -0.4000  3.1846 -2.1604
   16POPC  H14B 2021   1.336   2.448   6.727 -2.4884 -2.4043 -1.2873
   16POPC  H14C 2022   1.291   2.352   6.863 -0.5370  2.7150  1.3270
   16POPC   C15 2023   1.360   2.169   6.692  0.4030  0.4122 -0.1392
   16POPC  H15A 2024   1.315   2.213   6.605 -1.2543  0.4279  0.6817
   16POPC  H15B 2025   1.274   2.146   6.753  0.7321  0.6083  0.4128
   16POPC  H15C 2026   1.416   2.078   6.681 -0.0136  0.1172  0.1586
   16POPC   C11 2027   1.544   2.339   6.516  0.4552 -0.0671  0.2154
   16POPC  H11A 2028   1.518   2.245   6.464  0.8426 -0.1734  0.2057
   16POPC  H11B 2029   1.646   2.360   6.476  0.1240  0.3193 -0.4313
   16POPC     P 2030   1.313   2.441   6.428 -0.0732  0.2182  0.1684
   16POPC   O13 2031   1.270   2.581   6.399  0.1293  0.3406 -0.4580
   16POPC   O14 2032   1.214   2.345   6.479  0.2427 -0.0001  0.4184
   16POPC   O12 2033   1.451   2.443   6.510 -0.1724 -0.3741  0.1354
   16POPC   O11 2034   1.349   2.381   6.287  0.3528 -0.5171  0.4997
   16POPC    C1 2035   1.449   2.434   6.204 -1.0423  0.0671  0.5549
   16POPC    HA 2036   1.518   2.350   6.181  1.0334  1.7940  0.1542
   16POPC    HB 2037   1.510   2.518   6.244 -0.0126 -0.4973  0.1885
   16POPC    C2 2038   1.384   2.492   6.076  0.1885 -0.5234  0.2716
   16POPC    HS 2039   1.323   2.580   6.106  1.9288  0.4954  0.9877
   16POPC   O21 2040   1.302   2.387   6.015  0.3477 -0.3945 -0.0439
   16POPC   C21 2041   1.218   2.435   5.930  0.2695  0.4549  0.9930
   16POPC   O22 2042   1.171   2.549   5.921 -0.1858 -0.5904 -0.3086
   16POPC   C22 2043   1.188   2.334   5.817 -0.5481 -0.4206 -0.7239
   16POPC   H2R 2044   1.087   2.358   5.778 -1.3408 -1.2740  0.7163
   16POPC   H2S 2045   1.177   2.239   5.874  0.9698 -0.2243 -0.0432
   16POPC    C3 2046   1.485   2.545   5.973 -0.0827 -0.0535 -0.2496
   16POPC    HX 2047   1.541   2.458   5.933  0.5475  0.1862  0.0740
   16POPC    HY 2048   1.561   2.604   6.029 -1.0820  0.2080  0.8786
   16POPC   O31 2049   1.423   2.616   5.862  0.1789  0.3311 -0.1627
   16POPC   C31 2050   1.448   2.745   5.840 -1.3540 -0.6827  0.1096
   16POPC   O32 2051   1.524   2.816   5.914  0.1644  0.9050 -0.1648
   16POPC   C32 2052   1.392   2.782   5.701 -0.4738 -0.2077  0.6659
   16POPC   H2X 2053   1.286   2.755   5.681 -0.4163 -0.7047  1.0357
   16POPC   H2Y 2054   1.450   2.713   5.635  2.1833  0.8655  1.7276
   16POPC   C23 2055   1.293   2.343   5.702 -0.6489 -0.2176  0.6487
   16POPC   H3R 2056   1.282   2.246   5.648 -2.6523 -1.0798  2.4502
   16POPC   H3S 2057   1.395   2.362   5.741  0.4474 -0.7761 -1.7672
   16POPC   C24 2058   1.258   2.458   5.605 -0.0928  0.0478 -0.3340
   16POPC   H4R 2059   1.262   2.555   5.660  1.9195 -0.6823  0.9315
   16POPC   H4S 2060   1.155   2.434   5.573  0.3311 -2.7057  0.0851
   16POPC   C25 2061   1.328   2.450   5.471 -0.0153  0.0895  0.3544
   16POPC   H5R 2062   1.329   2.351   5.420  0.8197  0.5988 -0.6288
   16POPC   H5S 2063   1.432   2.481   5.493  0.1968  1.0148 -1.7610
   16POPC   C26 2064   1.285   2.561   5.381  0.4457 -0.0920  0.3210
   16POPC   H6R 2065   1.269   2.650   5.445  0.7463  1.3636 -1.5632
   16POPC   H6S 2066   1.183   2.534   5.347  0.1185  3.1112 -1.6354
   16POPC   C27 2067   1.388   2.596   5.271 -0.3372  0.2197 -0.0746
   16POPC   H7R 2068   1.426   2.503   5.223  0.9528 -1.5116  3.8605
   16POPC   H7S 2069   1.477   2.633   5.326  0.0901 -0.6698 -0.1501
   16POPC   C28 2070   1.333   2.702   5.185  0.1401 -0.5680  0.5514
   16POPC   H8R 2071   1.295   2.790   5.242  0.1504 -0.3878  0.2821
   16POPC   H8S 2072   1.244   2.653   5.140 -1.9440 -0.0028  3.7115
   16POPC   C29 2073   1.436   2.754   5.081  0.2266  0.9354 -0.0665
   16POPC   H91 2074   1.506   2.825   5.128  0.2532  1.5792 -1.0622
   16POPC  C210 2075   1.423   2.745   4.951 -0.4404  0.0409 -0.2671
   16POPC  H101 2076   1.488   2.808   4.888 -0.7736  0.2812 -0.3727
   16POPC  C211 2077   1.302   2.697   4.879  0.4485 -0.0230 -0.5686
   16POPC  H11R 2078   1.260   2.612   4.937  0.2236  1.8171  2.1472
   16POPC  H11S 2079   1.332   2.650   4.783 -1.2088 -2.6602  0.0796
   16POPC  C212 2080   1.191   2.803   4.857 -0.2513 -0.1331  0.2522
   16POPC  H12R 2081   1.228   2.871   4.777 -0.0801 -1.5908 -0.9587
   16POPC  H12S 2082   1.143   2.843   4.949  1.4418  2.8236 -0.0272
   16POPC  C213 2083   1.068   2.740   4.783 -0.5162 -0.1596 -0.3560
   16POPC  H13R 2084   1.022   2.658   4.842 -0.6062  1.2311  1.6178
   16POPC  H13S 2085   1.099   2.695   4.687 -2.2912 -0.6237 -0.7457
   16POPC  C214 2086   0.959   2.848   4.748  0.1848 -0.0255 -0.3801
   16POPC  H14R 2087   1.012   2.946   4.743 -0.1902  0.1880 -0.2644
   16POPC  H14S 2088   0.894   2.863   4.837  2.2989  0.5109  1.1565
   16POPC  C215 2089   0.875   2.812   4.623 -0.0125 -0.5803  0.2339
   16POPC  H15R 2090   0.940   2.792   4.535  0.4370 -1.2777  0.7106
   16POPC  H15S 2091   0.811   2.900   4.599  0.1272 -1.1831 -2.7907
   16POPC  C216 2092   0.789   2.688   4.642  0.4626  0.5611 -0.5795
   16POPC  H16R 2093   0.693   2.714   4.692  0.8544 -2.0364  1.7440
   16POPC  H16S 2094   0.836   2.613   4.709  1.9768  1.1953 -0.8979
   16POPC  C217 2095   0.753   2.627   4.503 -0.0656  0.6749  0.2556
   16POPC  H17R 2096   0.849   2.622   4.447  1.7478  0.0405  3.2267
   16POPC  H17S 2097   0.684   2.704   4.462 -0.2078  0.4913  0.1498
   16POPC  C218 2098   0.689   2.488   4.515  0.4718  0.5159  0.5933
   16POPC  H18R 2099   0.757   2.415   4.564  0.3355  0.3742  0.5715
   16POPC  H18S 2100   0.672   2.448   4.412  1.0813 -0.7062  0.9443
   16POPC  H18T 2101   0.595   2.490   4.573  1.4608 -1.7002  2.4315
   16POPC   C33 2102   1.433   2.929   5.666  0.1455 -0.1037  0.4699
   16POPC   H3X 2103   1.541   2.951   5.683  0.5962  1.0063 -2.8970
   16POPC   H3Y 2104   1.379   2.997   5.735 -2.3410 -2.0459  0.5826
   16POPC   C34 2105   1.418   2.973   5.520 -0.3800 -0.0652 -0.1622
   16POPC   H4X 2106   1.315   2.955   5.484  0.0858 -0.7907 -1.2066
   16POPC   H4Y 2107   1.489   2.912   5.459  0.1034 -0.1606  0.4781
   16POPC   C35 2108   1.449   3.127   5.508 -0.3961  0.5507 -0.0161
   16POPC   H5X 2109   1.546   3.143   5.559 -1.0476 -2.3867  2.4542
   16POPC   H5Y 2110   1.367   3.189   5.551 -1.5015  0.6601 -2.1331
   16POPC   C36 2111   1.457   3.192   5.369  0.0711  0.1190 -0.1195
   16POPC   H6X 2112   1.454   3.302   5.383  1.7689  0.5168 -2.3054
   16POPC   H6Y 2113   1.376   3.149   5.306  2.3850 -1.3607 -2.2463
   16POPC   C37 2114   1.586   3.154   5.292  0.5067 -0.2023 -0.2247
   16POPC   H7X 2115   1.586   3.043   5.300 -0.4118 -0.3406 -1.7954
   16POPC   H7Y 2116   1.678   3.185   5.347 -0.0366  0.1530  0.5109
   16POPC   C38 2117   1.570   3.203   5.151  0.3788 -0.4529  0.7798
   16POPC   H8X 2118   1.537   3.309   5.154 -1.2243 -0.9313  0.8874
   16POPC   H8Y 2119   1.492   3.144   5.098  1.2002 -0.3977 -0.5503
   16POPC   C39 2120   1.699   3.197   5.069  0.1483  0.0365 -0.1081
   16POPC   H9X 2121   1.736   3.093   5.081 -0.8189 -0.7956 -3.3784
   16POPC   H9Y 2122   1.778   3.266   5.107 -0.9110  1.1718  0.0977
   16POPC  C310 2123   1.674   3.230   4.927  0.1865  0.0597  0.5424
   16POPC  H10X 2124   1.767   3.247   4.870 -0.0068  0.9411  0.4751
   16POPC  H10Y 2125   1.608   3.320   4.925 -0.3906 -0.3462  0.8801
   16POPC  C311 2126   1.603   3.117   4.840 -0.1742  0.6194  0.3451
   16POPC  H11X 2127   1.506   3.091   4.887  0.0967 -0.3368  0.3755
   16POPC  H11Y 2128   1.675   3.033   4.849 -0.4681  0.0490 -1.9389
   16POPC  C312 2129   1.570   3.139   4.694 -0.3492 -0.8383 -0.8918
   16POPC  H12X 2130   1.664   3.158   4.639 -0.4583  0.1805 -0.7463
   16POPC  H12Y 2131   1.517   3.236   4.693  3.3389  1.3694 -2.0200
   16POPC  C313 2132   1.478   3.034   4.625  0.5740 -0.1476  0.0174
   16POPC  H13X 2133   1.391   3.021   4.693  0.2299  0.8948 -0.1993
   16POPC  H13Y 2134   1.461   3.086   4.528  0.3688  2.4190  1.3315
   16POPC  C314 2135   1.551   2.906   4.584  0.0923  0.0812 -0.6080
   16POPC  H14X 2136   1.599   2.865   4.675  0.8365  1.4030 -0.3837
   16POPC  H14Y 2137   1.632   2.941   4.516  1.3093 -3.0347 -0.9183
   16POPC  C315 2138   1.454   2.805   4.519  0.0231  0.3615 -0.1429
   16POPC  H15X 2139   1.388   2.765   4.599 -0.2458 -1.6276 -1.2819
   16POPC  H15Y 2140   1.520   2.724   4.482  0.6718  0.2666  1.1503
   16POPC  C316 2141   1.378   2.867   4.402  0.0421  0.0475  0.4538
   16POPC  H16X 2142   1.440   2.893   4.314 -0.8792 -3.4273 -1.4409
   16POPC  H16Y 2143   1.307   2.944   4.439  1.3455  2.6540 -2.0584
   16POPC  H16Z 2144   1.313   2.787   4.360  1.4104  0.0942 -1.9512
   17POPC     N 2145   3.432   1.290   6.489 -0.0163 -0.0264  0.5892
   17POPC   C12 2146   3.367   1.368   6.376  0.6666  0.4592  0.1103
   17POPC  H12A 2147   3.365   1.473   6.399  1.0987  0.0794  2.1281
   17POPC  H12B 2148   3.263   1.338   6.368  0.5854 -0.0715  2.4267
   17POPC   C13 2149   3.578   1.324   6.495 -0.3401 -0.3886  0.4560
   17POPC  H13A 2150   3.633   1.312   6.402  2.4299  1.8165  1.6596
   17POPC  H13B 2151   3.587   1.423   6.537 -0.7200  0.7448 -1.9624
   17POPC  H13C 2152   3.633   1.257   6.560  1.1143  2.4346  2.3633
   17POPC   C14 2153   3.373   1.320   6.624  0.3324 -0.4611 -0.2679
   17POPC  H14A 2154   3.267   1.300   6.617  0.1654  0.8484 -3.3861
   17POPC  H14B 2155   3.427   1.264   6.698 -0.9055  0.7875  1.6819
   17POPC  H14C 2156   3.394   1.425   6.636  3.0052 -1.1024  1.5763
   17POPC   C15 2157   3.414   1.144   6.446 -0.0346 -0.7715 -0.3599
   17POPC  H15A 2158   3.314   1.118   6.414 -0.0377 -1.5897  0.2717
   17POPC  H15B 2159   3.448   1.083   6.529 -1.5168 -0.3431  0.6093
   17POPC  H15C 2160   3.467   1.106   6.360 -0.8616 -1.5519 -0.5529
   17POPC   C11 2161   3.427   1.349   6.236  0.0503 -0.1204 -0.0832
   17POPC  H11A 2162   3.537   1.343   6.245 -0.0312 -2.9557 -0.3676
   17POPC  H11B 2163   3.392   1.427   6.165  1.5862  0.7907  0.1098
   17POPC     P 2164   3.240   1.195   6.137  0.2175  0.3417 -0.2163
   17POPC   O13 2165   3.147   1.297   6.186  0.1592 -0.5496  0.9551
   17POPC   O14 2166   3.220   1.060   6.196  0.1658 -0.2575 -0.5929
   17POPC   O12 2167   3.384   1.234   6.172  0.1357  0.6060  0.2467
   17POPC   O11 2168   3.237   1.184   5.979  0.6381 -0.1204 -0.9741
   17POPC    C1 2169   3.319   1.264   5.896  0.8965  0.7668  0.0113
   17POPC    HA 2170   3.307   1.233   5.790 -2.0331  1.1836  0.1292
   17POPC    HB 2171   3.423   1.255   5.934  1.6703  1.4238 -1.8292
   17POPC    C2 2172   3.266   1.415   5.898  0.0231 -0.1762 -0.6037
   17POPC    HS 2173   3.247   1.439   6.005  1.8964  0.1091 -0.3096
   17POPC   O21 2174   3.145   1.426   5.823  0.3113  0.0166  0.0681
   17POPC   C21 2175   3.068   1.528   5.865  0.2257 -0.5129  0.4759
   17POPC   O22 2176   3.090   1.606   5.954  0.2853  0.6312  0.1791
   17POPC   C22 2177   2.949   1.553   5.762  0.0842 -0.1603 -0.2082
   17POPC   H2R 2178   2.917   1.659   5.767  0.4849 -0.0191 -0.5251
   17POPC   H2S 2179   2.865   1.486   5.789 -0.1734  0.1054 -0.3355
   17POPC    C3 2180   3.368   1.517   5.848  0.4123  0.6436  0.4467
   17POPC    HX 2181   3.468   1.508   5.895  1.1725 -1.4072 -1.3744
   17POPC    HY 2182   3.339   1.622   5.873  1.1800  0.7927  0.7215
   17POPC   O31 2183   3.392   1.511   5.702  0.2701 -0.1100  0.1313
   17POPC   C31 2184   3.490   1.430   5.662  0.3969  0.6051  0.2229
   17POPC   O32 2185   3.569   1.364   5.726  0.1601 -0.6089 -0.2870
   17POPC   C32 2186   3.498   1.440   5.510 -0.0097  0.0288  0.5526
   17POPC   H2X 2187   3.395   1.459   5.475 -0.0532  0.1550  0.7489
   17POPC   H2Y 2188   3.543   1.345   5.472 -2.0128 -1.9845  2.8942
   17POPC   C23 2189   2.970   1.500   5.624 -0.1009 -0.0968  0.4642
   17POPC   H3R 2190   3.070   1.525   5.584  0.1104 -1.4869  0.0569
   17POPC   H3S 2191   2.895   1.538   5.552 -1.5336 -0.4761  1.7052
   17POPC   C24 2192   2.936   1.348   5.613  0.4031 -0.3786  0.1440
   17POPC   H4R 2193   3.007   1.287   5.672  0.3105 -0.7032 -0.0739
   17POPC   H4S 2194   2.956   1.313   5.509  0.8576 -1.9000  0.7343
   17POPC   C25 2195   2.793   1.307   5.650 -0.4269  0.3027 -0.3245
   17POPC   H5R 2196   2.717   1.386   5.630 -0.0112  1.6481  2.8346
   17POPC   H5S 2197   2.790   1.299   5.761  0.4241 -1.3141 -0.3908
   17POPC   C26 2198   2.760   1.171   5.584 -0.1222 -0.5656 -0.1230
   17POPC   H6R 2199   2.848   1.110   5.613  0.4397  0.1180 -0.3519
   17POPC   H6S 2200   2.762   1.181   5.473  1.0185  0.7555 -0.0159
   17POPC   C27 2201   2.621   1.109   5.612  0.7963 -0.4490 -0.0950
   17POPC   H7R 2202   2.547   1.186   5.582  1.4642  0.0475 -0.5096
   17POPC   H7S 2203   2.608   1.088   5.720 -0.6589 -1.4779 -0.4455
   17POPC   C28 2204   2.583   0.982   5.536 -0.6023  0.3534 -0.5200
   17POPC   H8R 2205   2.663   0.911   5.566 -0.3167  0.3807 -1.1953
   17POPC   H8S 2206   2.603   1.011   5.430  0.0324 -1.2314 -0.8674
   17POPC   C29 2207   2.441   0.930   5.541  0.6124  0.5691 -0.9759
   17POPC   H91 2208   2.429   0.850   5.615 -0.9953  0.4200 -1.3612
   17POPC  C210 2209   2.337   0.966   5.465  0.5392  0.4830 -0.3184
   17POPC  H101 2210   2.247   0.905   5.483  2.1174 -1.7728  0.4047
   17POPC  C211 2211   2.332   1.071   5.367  0.7219  0.4379 -0.0040
   17POPC  H11R 2212   2.412   1.052   5.292  0.6669 -0.3701  0.1292
   17POPC  H11S 2213   2.352   1.167   5.420  1.9992  0.0876  0.1934
   17POPC  C212 2214   2.198   1.073   5.299 -0.5639  0.3999 -0.2463
   17POPC  H12R 2215   2.117   1.088   5.374  0.1666  0.9454  0.4482
   17POPC  H12S 2216   2.193   0.971   5.256 -0.2731  0.6416 -0.8588
   17POPC  C213 2217   2.190   1.169   5.183 -0.3268 -0.8737  0.0732
   17POPC  H13R 2218   2.099   1.144   5.124 -1.4773  1.0962  0.9033
   17POPC  H13S 2219   2.274   1.155   5.112  0.4581 -0.0459  0.8043
   17POPC  C214 2220   2.182   1.316   5.223  0.0450 -0.5097  0.9512
   17POPC  H14R 2221   2.266   1.341   5.292 -0.7332  0.6871  1.4918
   17POPC  H14S 2222   2.092   1.349   5.280 -0.2708  0.7887 -0.2447
   17POPC  C215 2223   2.191   1.415   5.109 -0.1211  0.0004 -0.2419
   17POPC  H15R 2224   2.096   1.412   5.052 -0.0685  2.8429 -0.6270
   17POPC  H15S 2225   2.276   1.388   5.042  0.1055 -2.7315  0.9947
   17POPC  C216 2226   2.191   1.561   5.161  0.0926  0.8812 -0.1795
   17POPC  H16R 2227   2.278   1.566   5.229  0.0297  0.6401 -0.0798
   17POPC  H16S 2228   2.105   1.582   5.227 -0.2614 -2.0615  0.4481
   17POPC  C217 2229   2.194   1.674   5.055  0.8296  0.4510  0.3353
   17POPC  H17R 2230   2.181   1.778   5.091 -2.5217  1.1820 -2.4154
   17POPC  H17S 2231   2.100   1.660   4.997  1.7198 -2.0315 -0.6051
   17POPC  C218 2232   2.318   1.663   4.971  0.2100  0.4688 -0.3461
   17POPC  H18R 2233   2.300   1.739   4.891  0.1995 -0.0621 -0.8556
   17POPC  H18S 2234   2.316   1.562   4.924 -0.3688  0.7408 -0.9316
   17POPC  H18T 2235   2.417   1.677   5.019  0.5091 -0.2424 -0.7383
   17POPC   C33 2236   3.598   1.547   5.464  0.5515 -0.3114 -0.7120
   17POPC   H3X 2237   3.697   1.530   5.512  1.0080  0.1005 -1.4900
   17POPC   H3Y 2238   3.559   1.645   5.497 -0.6663 -0.0797 -2.6843
   17POPC   C34 2239   3.605   1.554   5.309  0.0700  0.4430  0.4514
   17POPC   H4X 2240   3.684   1.629   5.286  0.4525 -0.4154 -1.2016
   17POPC   H4Y 2241   3.511   1.608   5.286 -0.1410  0.7046  1.8506
   17POPC   C35 2242   3.627   1.423   5.231 -0.4008  0.6183  0.4407
   17POPC   H5X 2243   3.538   1.358   5.213  0.8205 -1.1452  0.5138
   17POPC   H5Y 2244   3.705   1.365   5.285 -2.2304 -1.0006  1.4770
   17POPC   C36 2245   3.681   1.456   5.084 -0.4672  0.2336  0.0695
   17POPC   H6X 2246   3.737   1.377   5.029  0.8435  0.2317  1.3727
   17POPC   H6Y 2247   3.762   1.526   5.110 -0.9217 -0.1268  2.7375
   17POPC   C37 2248   3.571   1.509   4.997  0.7447  0.1538 -0.6972
   17POPC   H7X 2249   3.516   1.589   5.053 -1.1963 -1.0135 -0.8663
   17POPC   H7Y 2250   3.486   1.444   4.969 -1.3110  2.7670 -0.9400
   17POPC   C38 2251   3.620   1.576   4.876 -0.2222 -0.7700 -0.4491
   17POPC   H8X 2252   3.686   1.509   4.817  2.7254  3.6182 -2.7089
   17POPC   H8Y 2253   3.688   1.662   4.897  0.4494 -1.5545  0.7131
   17POPC   C39 2254   3.511   1.614   4.779  0.4311  0.5135  0.2441
   17POPC   H9X 2255   3.434   1.663   4.843 -0.5656 -1.0203  0.2728
   17POPC   H9Y 2256   3.462   1.520   4.746  0.2843  0.9385 -0.8161
   17POPC  C310 2257   3.549   1.693   4.657 -0.3784 -0.0429  0.7862
   17POPC  H10X 2258   3.632   1.759   4.691 -0.9141  0.3853  1.2867
   17POPC  H10Y 2259   3.462   1.750   4.618 -0.6076 -0.8818  0.0398
   17POPC  C311 2260   3.599   1.609   4.533  0.6379 -1.0908  0.2983
   17POPC  H11X 2261   3.539   1.516   4.529  0.7313 -1.1600  0.4762
   17POPC  H11Y 2262   3.705   1.584   4.551  0.6511  0.3161  2.6941
   17POPC  C312 2263   3.587   1.691   4.406 -0.1068  0.9741 -0.5013
   17POPC  H12X 2264   3.662   1.771   4.423 -0.0024  0.1133  4.6676
   17POPC  H12Y 2265   3.484   1.731   4.399 -0.3479  0.2062 -1.6306
   17POPC  C313 2266   3.623   1.603   4.288 -0.4793 -0.2130 -0.0125
   17POPC  H13X 2267   3.569   1.506   4.293 -0.6324 -0.0779  1.0564
   17POPC  H13Y 2268   3.730   1.573   4.295 -0.7147 -1.0124  0.2649
   17POPC  C314 2269   3.607   1.668   4.150  0.8515 -0.1291  0.3554
   17POPC  H14X 2270   3.636   1.594   4.072 -0.2741  1.2622 -1.4753
   17POPC  H14Y 2271   3.681   1.752   4.150  0.3599  0.3421 -1.1853
   17POPC  C315 2272   3.461   1.708   4.103  0.1551  0.7886 -0.5013
   17POPC  H15X 2273   3.416   1.765   4.187 -4.5961 -0.4556 -1.8686
   17POPC  H15Y 2274   3.414   1.608   4.091 -0.7847  1.3576 -1.8527
   17POPC  C316 2275   3.453   1.801   3.984 -0.0839  0.1461 -0.2420
   17POPC  H16X 2276   3.350   1.835   3.956 -0.3449 -1.4728 -1.3804
   17POPC  H16Y 2277   3.488   1.750   3.892  0.8670  1.9927 -0.9536
   17POPC  H16Z 2278   3.515   1.890   4.009 -0.2827  0.2796 -0.2199
   18POPC     N 2279   4.382   3.316   6.346 -0.7913 -0.4167 -0.2827
   18POPC   C12 2280   4.405   3.292   6.198 -0.1782  0.1314 -0.9098
   18POPC  H12A 2281   4.325   3.334   6.139 -0.6163  2.3555  1.0923
   18POPC  H12B 2282   4.409   3.186   6.179 -2.8722 -0.1656 -0.2301
   18POPC   C13 2283   4.374   3.465   6.386 -0.9082  0.6126 -0.5332
   18POPC  H13A 2284   4.376   3.480   6.493  2.9188  0.2015 -0.4160
   18POPC  H13B 2285   4.464   3.508   6.344 -1.2325 -0.1912 -2.1077
   18POPC  H13C 2286   4.292   3.512   6.335 -2.6542  0.2195  1.7200
   18POPC   C14 2287   4.256   3.248   6.383  0.5073 -0.3708  0.5477
   18POPC  H14A 2288   4.273   3.146   6.414 -0.3933 -0.2109  1.6381
   18POPC  H14B 2289   4.200   3.285   6.468 -1.7190 -1.4108 -0.3754
   18POPC  H14C 2290   4.190   3.234   6.299 -1.2103  0.0678  1.7491
   18POPC   C15 2291   4.485   3.252   6.431  0.1907 -0.5654  1.1119
   18POPC  H15A 2292   4.487   3.147   6.406 -2.3497 -0.3036 -0.5408
   18POPC  H15B 2293   4.476   3.264   6.538 -0.7652  1.7149  0.8402
   18POPC  H15C 2294   4.583   3.292   6.411 -1.5275  3.7128  0.0803
   18POPC   C11 2295   4.537   3.357   6.141  0.4698 -0.5694 -0.2825
   18POPC  H11A 2296   4.552   3.312   6.040  1.2585 -0.6884 -0.1186
   18POPC  H11B 2297   4.619   3.319   6.206  0.1881 -2.5763 -1.0399
   18POPC     P 2298   4.651   3.597   6.151  0.0257  0.3060 -0.0428
   18POPC   O13 2299   4.778   3.517   6.161 -0.1625 -0.7538  0.0511
   18POPC   O14 2300   4.612   3.682   6.271 -0.7216  0.5564  0.5896
   18POPC   O12 2301   4.533   3.500   6.146 -0.0830  0.4463 -0.1173
   18POPC   O11 2302   4.654   3.685   6.026 -0.3500 -0.3762 -0.3547
   18POPC    C1 2303   4.597   3.642   5.904  0.6170 -0.2521 -0.4136
   18POPC    HA 2304   4.486   3.645   5.908  0.6160 -0.2778 -0.4092
   18POPC    HB 2305   4.625   3.537   5.882 -0.6440 -0.7550  0.2783
   18POPC    C2 2306   4.645   3.731   5.789  0.4039 -0.6154  0.2089
   18POPC    HS 2307   4.600   3.707   5.690 -1.4247 -0.0248  0.8630
   18POPC   O21 2308   4.791   3.731   5.782  0.1651  0.3035  0.1345
   18POPC   C21 2309   4.832   3.621   5.722 -0.1717  0.2576  0.3780
   18POPC   O22 2310   4.760   3.526   5.689 -0.3502  0.0784 -0.1039
   18POPC   C22 2311   4.984   3.614   5.719  0.6515 -0.2859  0.2759
   18POPC   H2R 2312   5.008   3.514   5.761  0.0497 -0.4750  0.1888
   18POPC   H2S 2313   5.032   3.687   5.788  0.9357 -2.1485  2.1486
   18POPC    C3 2314   4.593   3.876   5.812 -1.3509  0.4268 -0.0616
   18POPC    HX 2315   4.639   3.921   5.902 -0.3562  0.9736 -0.8195
   18POPC    HY 2316   4.485   3.865   5.836 -1.5453 -1.1160 -1.4462
   18POPC   O31 2317   4.612   3.955   5.695  0.4966  0.8621  0.8541
   18POPC   C31 2318   4.710   4.046   5.684 -0.2228 -0.4594  0.6354
   18POPC   O32 2319   4.780   4.089   5.776  0.2070 -0.1971  0.6116
   18POPC   C32 2320   4.689   4.108   5.545 -0.3444 -0.1804 -0.7742
   18POPC   H2X 2321   4.647   4.209   5.568  0.4282 -0.2182  0.9385
   18POPC   H2Y 2322   4.611   4.047   5.495  0.7932 -3.0365  0.7041
   18POPC   C23 2323   5.035   3.619   5.577 -0.0605 -0.4328 -0.2667
   18POPC   H3R 2324   4.984   3.547   5.509  0.2257 -1.1690  0.2970
   18POPC   H3S 2325   5.143   3.596   5.578  0.5454  2.1290 -0.0837
   18POPC   C24 2326   5.034   3.763   5.515 -0.5986  0.3408 -0.0793
   18POPC   H4R 2327   5.094   3.833   5.577  0.4158  0.5974 -1.3199
   18POPC   H4S 2328   4.930   3.801   5.514 -0.2704  1.4076  1.6174
   18POPC   C25 2329   5.104   3.757   5.380 -0.0746  0.2527 -0.9067
   18POPC   H5R 2330   5.058   3.678   5.318 -3.7241  0.1115  1.6617
   18POPC   H5S 2331   5.211   3.732   5.398 -0.6999 -0.7144  2.2049
   18POPC   C26 2332   5.093   3.890   5.300  0.0369  0.6601 -0.1194
   18POPC   H6R 2333   5.113   3.974   5.369  2.8065  2.5729 -2.9671
   18POPC   H6S 2334   4.986   3.895   5.268  0.3805 -0.0801 -1.4881
   18POPC   C27 2335   5.183   3.901   5.183  0.0438 -0.0357  0.2620
   18POPC   H7R 2336   5.144   3.833   5.104 -0.3258  0.3798  0.0867
   18POPC   H7S 2337   5.285   3.865   5.209  0.3812 -0.5275 -1.6041
   18POPC   C28 2338   5.192   4.044   5.133 -0.1024  0.1933  0.6106
   18POPC   H8R 2339   5.242   4.107   5.210 -0.1818  0.4864  0.4217
   18POPC   H8S 2340   5.087   4.075   5.115 -0.1256 -0.5122 -0.5393
   18POPC   C29 2341   5.278   4.059   5.007 -0.1476 -0.1639 -0.2790
   18POPC   H91 2342   5.386   4.075   5.022  0.2045 -2.4237  0.0497
   18POPC  C210 2343   5.235   4.048   4.881 -0.1279  0.2966 -0.5173
   18POPC  H101 2344   5.315   4.058   4.807  0.2532  1.3349  0.0077
   18POPC  C211 2345   5.094   4.025   4.837  0.4710  0.8146 -0.2142
   18POPC  H11R 2346   5.031   4.112   4.863 -0.4807 -0.2345  1.1203
   18POPC  H11S 2347   5.049   3.939   4.891  0.6179  1.1780  0.5151
   18POPC  C212 2348   5.086   3.999   4.687 -0.4092  0.1311  0.3381
   18POPC  H12R 2349   4.984   3.959   4.669 -1.2733  1.5287  1.8444
   18POPC  H12S 2350   5.165   3.927   4.657 -1.7172 -1.4933  0.6396
   18POPC  C213 2351   5.091   4.135   4.610  0.2438  0.7880 -0.8046
   18POPC  H13R 2352   5.179   4.196   4.637  0.1952  0.2301  0.6921
   18POPC  H13S 2353   5.005   4.190   4.654  1.5759  0.2914  2.7260
   18POPC  C214 2354   5.078   4.111   4.458  0.8571  0.3104  0.0972
   18POPC  H14R 2355   4.978   4.065   4.449  1.6431 -2.0924  2.3396
   18POPC  H14S 2356   5.143   4.038   4.405  0.3233 -0.1264  0.0367
   18POPC  C215 2357   5.094   4.236   4.376 -0.4902 -0.1881 -0.0660
   18POPC  H15R 2358   5.200   4.261   4.358  0.6794 -2.5575  2.7864
   18POPC  H15S 2359   5.050   4.325   4.426  0.6109  0.1637  0.3068
   18POPC  C216 2360   5.030   4.217   4.240  0.1695  0.1205  0.4916
   18POPC  H16R 2361   5.037   4.313   4.185 -1.7470 -0.0874 -0.1767
   18POPC  H16S 2362   4.921   4.202   4.252 -0.1044  1.8418  0.4058
   18POPC  C217 2363   5.102   4.117   4.143  0.1578  0.4230  0.2357
   18POPC  H17R 2364   5.029   4.105   4.060  0.3908 -1.4334  0.2619
   18POPC  H17S 2365   5.099   4.018   4.195 -2.1498 -0.3874 -1.2565
   18POPC  C218 2366   5.241   4.153   4.090 -0.2360 -0.1118  0.0706
   18POPC  H18R 2367   5.260   4.083   4.006 -0.1343  1.4030 -1.2025
   18POPC  H18S 2368   5.319   4.148   4.169 -0.3923 -0.0670  0.2306
   18POPC  H18T 2369   5.232   4.257   4.054 -0.5390  0.6307  2.1718
   18POPC   C33 2370   4.815   4.104   5.461 -0.2301  0.2957  0.3688
   18POPC   H3X 2371   4.786   4.119   5.354 -1.1612  1.9647  0.8250
   18POPC   H3Y 2372   4.861   4.003   5.466 -0.5080  0.1121 -0.5720
   18POPC   C34 2373   4.923   4.205   5.495 -0.3043 -0.0227  0.2196
   18POPC   H4X 2374   5.001   4.179   5.421  0.8844  0.3741  1.2899
   18POPC   H4Y 2375   4.952   4.201   5.602  0.1930  1.4033  0.1495
   18POPC   C35 2376   4.892   4.353   5.460  0.0577  0.0207 -0.0332
   18POPC   H5X 2377   4.984   4.414   5.475 -1.8225  2.7653  1.0074
   18POPC   H5Y 2378   4.810   4.391   5.525 -0.9410 -1.2573 -0.5005
   18POPC   C36 2379   4.849   4.375   5.312  0.0543  0.3043 -1.0459
   18POPC   H6X 2380   4.823   4.483   5.320  0.9194  0.4197  0.6673
   18POPC   H6Y 2381   4.765   4.316   5.271  1.2648 -0.8329 -1.9842
   18POPC   C37 2382   4.967   4.372   5.212  0.3609  0.1661  0.0032
   18POPC   H7X 2383   4.986   4.265   5.193  1.9554  0.5467 -0.6366
   18POPC   H7Y 2384   5.065   4.421   5.231  0.3062  0.1061  0.4511
   18POPC   C38 2385   4.915   4.426   5.073  0.5122 -0.0635  0.3018
   18POPC   H8X 2386   4.877   4.530   5.080 -0.6580 -0.4025 -0.6069
   18POPC   H8Y 2387   4.825   4.365   5.047  0.0009  0.1887  1.3873
   18POPC   C39 2388   5.013   4.435   4.964  0.1334  0.4599 -0.0199
   18POPC   H9X 2389   5.039   4.338   4.918  1.3547 -0.2210  1.9689
   18POPC   H9Y 2390   5.113   4.469   4.998  1.2636 -1.3633 -1.3945
   18POPC  C310 2391   4.965   4.512   4.833 -1.0174 -0.7760  0.1249
   18POPC  H10X 2392   4.953   4.619   4.862 -1.2010 -0.8854  0.4685
   18POPC  H10Y 2393   4.871   4.472   4.789 -1.6918 -1.2228  1.8693
   18POPC  C311 2394   5.079   4.524   4.730 -0.0705 -0.1031  0.5947
   18POPC  H11X 2395   5.081   4.429   4.673 -1.4096 -0.8257  1.6826
   18POPC  H11Y 2396   5.181   4.533   4.775  0.9568 -0.9740 -1.4227
   18POPC  C312 2397   5.045   4.645   4.636 -0.0040  0.7012  0.7088
   18POPC  H12X 2398   5.137   4.652   4.575 -1.5128 -1.4790 -2.0871
   18POPC  H12Y 2399   5.038   4.740   4.694  0.8241 -0.8078  3.4761
   18POPC  C313 2400   4.931   4.612   4.539  0.1123 -0.7087  0.2307
   18POPC  H13X 2401   4.836   4.634   4.593 -0.9756 -1.3825 -1.3023
   18POPC  H13Y 2402   4.933   4.509   4.496 -1.5737 -1.2814  1.4364
   18POPC  C314 2403   4.926   4.713   4.418 -0.3046 -0.4696  0.3628
   18POPC  H14X 2404   4.906   4.811   4.468 -1.4419 -0.7177  0.4391
   18POPC  H14Y 2405   4.836   4.693   4.356 -0.2182 -0.5473  0.2632
   18POPC  C315 2406   5.045   4.742   4.333 -0.2590 -0.8905 -0.0231
   18POPC  H15X 2407   5.128   4.785   4.392  0.9502 -2.0159 -0.8401
   18POPC  H15Y 2408   5.025   4.819   4.255  1.5085 -0.9188 -0.5447
   18POPC  C316 2409   5.105   4.616   4.269 -0.3879 -0.0220 -0.3275
   18POPC  H16X 2410   5.025   4.575   4.204 -2.3117 -0.8401  2.3852
   18POPC  H16Y 2411   5.143   4.542   4.344  0.8036  0.0762 -0.8110
   18POPC  H16Z 2412   5.189   4.639   4.200 -0.6581 -1.0384 -1.0310
   19POPC     N 2413   4.811   2.709   5.924 -0.4631  0.0332 -0.6318
   19POPC   C12 2414   4.695   2.726   6.011 -0.3109  0.5105 -0.0012
   19POPC  H12A 2415   4.723   2.791   6.093 -0.3981 -0.0032  0.4408
   19POPC  H12B 2416   4.644   2.644   6.059 -2.0661  2.2020  1.2168
   19POPC   C13 2417   4.933   2.660   6.000 -0.4386  0.6689 -0.3040
   19POPC  H13A 2418   4.913   2.564   6.045  0.3443 -0.2662 -1.8667
   19POPC  H13B 2419   5.020   2.647   5.939 -0.1631  0.7277  0.0718
   19POPC  H13C 2420   4.967   2.719   6.084  3.6972 -0.8402 -0.7124
   19POPC   C14 2421   4.769   2.604   5.826 -1.2327 -0.3302  0.0816
   19POPC  H14A 2422   4.849   2.586   5.756 -0.8727  0.6246  0.2388
   19POPC  H14B 2423   4.748   2.505   5.864  1.1861 -2.0077 -2.5289
   19POPC  H14C 2424   4.681   2.632   5.770 -1.1993 -1.1676 -0.3956
   19POPC   C15 2425   4.852   2.836   5.852 -0.4360 -0.2160  0.1259
   19POPC  H15A 2426   4.766   2.894   5.819 -0.3338 -0.9254 -1.4621
   19POPC  H15B 2427   4.910   2.816   5.763 -0.9430  0.1571 -0.2948
   19POPC  H15C 2428   4.903   2.896   5.926 -0.5638  0.3245 -0.2161
   19POPC   C11 2429   4.576   2.793   5.947 -0.7523 -0.3890  0.7922
   19POPC  H11A 2430   4.547   2.746   5.850 -1.6870  0.4151  0.6679
   19POPC  H11B 2431   4.605   2.898   5.924 -1.0983 -0.8818 -2.3073
   19POPC     P 2432   4.427   2.861   6.143  0.4961  0.5181 -0.0413
   19POPC   O13 2433   4.547   2.858   6.231 -0.2193 -0.4715  0.2992
   19POPC   O14 2434   4.299   2.828   6.211  0.0298  0.5037 -0.3380
   19POPC   O12 2435   4.458   2.769   6.022  0.3272  0.6224 -0.3128
   19POPC   O11 2436   4.409   3.001   6.084 -0.1897 -0.2556  0.5780
   19POPC    C1 2437   4.315   3.030   5.984 -0.3129 -0.1340  0.1695
   19POPC    HA 2438   4.232   3.078   6.039 -0.2495 -2.5351  2.6046
   19POPC    HB 2439   4.276   2.940   5.930 -3.1376  0.9914  0.1749
   19POPC    C2 2440   4.375   3.111   5.874  0.1696 -0.2504  0.7922
   19POPC    HS 2441   4.467   3.159   5.912  1.1443 -0.9613 -0.5548
   19POPC   O21 2442   4.281   3.220   5.848 -0.3298  0.4874  0.3881
   19POPC   C21 2443   4.336   3.329   5.809  0.3130  0.2691  0.0145
   19POPC   O22 2444   4.455   3.350   5.796  0.5899  0.2067 -0.2170
   19POPC   C22 2445   4.237   3.435   5.771  0.6645  0.2881 -0.3550
   19POPC   H2R 2446   4.262   3.524   5.832 -0.6494 -0.3960  1.2571
   19POPC   H2S 2447   4.133   3.399   5.786  0.9368 -0.9361 -1.1996
   19POPC    C3 2448   4.405   3.025   5.746  0.3035  0.2156 -0.2777
   19POPC    HX 2449   4.312   2.973   5.713 -1.8452  2.7488  1.3634
   19POPC    HY 2450   4.467   2.941   5.786  0.3699 -1.4962 -3.6347
   19POPC   O31 2451   4.476   3.097   5.640  0.3698 -0.1965  0.6575
   19POPC   C31 2452   4.611   3.086   5.639 -0.7289 -0.5895  0.0705
   19POPC   O32 2453   4.668   3.006   5.708  0.2789 -0.4385 -0.5372
   19POPC   C32 2454   4.674   3.182   5.532 -0.5807 -0.1634  0.6419
   19POPC   H2X 2455   4.667   3.283   5.577 -3.9369  1.0559 -2.1771
   19POPC   H2Y 2456   4.604   3.190   5.446 -1.4973  0.1058  1.4026
   19POPC   C23 2457   4.253   3.474   5.622  0.2892 -0.1789 -0.2405
   19POPC   H3R 2458   4.349   3.507   5.577  1.0870 -2.1861 -0.0970
   19POPC   H3S 2459   4.183   3.560   5.612 -0.4611 -0.9755 -2.1834
   19POPC   C24 2460   4.200   3.364   5.533  0.1098  1.2509  0.3500
   19POPC   H4R 2461   4.104   3.331   5.579  0.3331  1.6225  1.1043
   19POPC   H4S 2462   4.270   3.278   5.539 -1.0972  0.0686 -1.5456
   19POPC   C25 2463   4.177   3.404   5.386 -0.6389 -0.2009 -0.3983
   19POPC   H5R 2464   4.276   3.409   5.336  0.1695  2.1385  1.2507
   19POPC   H5S 2465   4.124   3.501   5.380  0.3632  0.4988  1.3483
   19POPC   C26 2466   4.068   3.304   5.332  0.4614 -0.3070 -0.8293
   19POPC   H6R 2467   4.071   3.306   5.221  0.0621  0.7464 -0.8248
   19POPC   H6S 2468   3.963   3.328   5.360  0.1095 -0.6613 -1.7963
   19POPC   C27 2469   4.096   3.158   5.357 -0.0644  0.4950 -0.6680
   19POPC   H7R 2470   4.073   3.116   5.457 -1.5270  1.5470 -0.5212
   19POPC   H7S 2471   4.206   3.152   5.346  0.0617  2.7838 -1.0972
   19POPC   C28 2472   4.026   3.061   5.254 -0.3798 -0.3271 -0.0407
   19POPC   H8R 2473   4.038   3.096   5.150  0.1950  2.2624  0.8287
   19POPC   H8S 2474   3.920   3.071   5.285  0.5022  2.4278  2.5881
   19POPC   C29 2475   4.064   2.913   5.273  0.6263 -0.1588 -0.4058
   19POPC   H91 2476   4.066   2.890   5.380 -5.0253  0.5695  0.1543
   19POPC  C210 2477   4.067   2.821   5.175  0.1775 -0.0035 -0.7318
   19POPC  H101 2478   4.101   2.721   5.207  0.9300  0.2310 -0.7949
   19POPC  C211 2479   4.033   2.843   5.025 -0.0288  0.8707 -0.4847
   19POPC  H11R 2480   3.964   2.929   5.011 -0.2920  0.1413 -4.7703
   19POPC  H11S 2481   3.986   2.748   4.991  1.0412  0.0340  0.2998
   19POPC  C212 2482   4.158   2.885   4.957  0.1355 -0.0166 -0.8214
   19POPC  H12R 2483   4.225   2.796   4.961  1.0183  0.6821  1.1173
   19POPC  H12S 2484   4.203   2.962   5.023 -0.8831 -0.8424  0.9131
   19POPC  C213 2485   4.140   2.941   4.818  0.3215  0.5943 -0.7413
   19POPC  H13R 2486   4.070   3.027   4.818 -2.3513 -1.4774 -1.0639
   19POPC  H13S 2487   4.107   2.866   4.744  2.1272 -0.8245 -0.1711
   19POPC  C214 2488   4.278   3.002   4.772 -0.5444 -0.0364 -0.2913
   19POPC  H14R 2489   4.295   3.104   4.813  0.5008 -0.6525  0.8607
   19POPC  H14S 2490   4.267   3.007   4.661 -0.2134 -1.4995 -0.4146
   19POPC  C215 2491   4.406   2.916   4.790  0.0913 -0.2368  0.6694
   19POPC  H15R 2492   4.392   2.820   4.736 -2.1850  0.7180 -0.5634
   19POPC  H15S 2493   4.423   2.894   4.898  0.6345  3.2921  1.4165
   19POPC  C216 2494   4.532   2.983   4.724  0.4179  0.0272 -0.3204
   19POPC  H16R 2495   4.558   3.081   4.768  1.9234 -0.8476  0.8737
   19POPC  H16S 2496   4.509   2.993   4.616 -1.2973 -0.2509 -0.0039
   19POPC  C217 2497   4.654   2.891   4.732  0.2042 -0.6114  0.3261
   19POPC  H17R 2498   4.622   2.790   4.699 -0.8579 -0.5655  1.1252
   19POPC  H17S 2499   4.682   2.894   4.840  0.8081  1.2672  0.1601
   19POPC  C218 2500   4.774   2.931   4.654  0.2544  0.4821 -0.2470
   19POPC  H18R 2501   4.866   2.871   4.672  0.1201  0.3815  0.1117
   19POPC  H18S 2502   4.798   3.035   4.686 -0.8978  2.0273 -3.8387
   19POPC  H18T 2503   4.743   2.936   4.547 -1.4091 -0.6886  0.1302
   19POPC   C33 2504   4.809   3.131   5.497 -0.0659 -1.0373  0.2533
   19POPC   H3X 2505   4.792   3.029   5.457 -0.8078 -1.5981  1.9275
   19POPC   H3Y 2506   4.862   3.101   5.590  2.5686 -3.7070 -1.8942
   19POPC   C34 2507   4.898   3.220   5.403 -0.1887 -1.0293  0.1154
   19POPC   H4X 2508   4.984   3.157   5.374 -2.2644 -4.2211  0.3319
   19POPC   H4Y 2509   4.929   3.310   5.460  2.5505 -1.7330 -0.1331
   19POPC   C35 2510   4.829   3.255   5.269 -0.5523 -0.8095 -0.0238
   19POPC   H5X 2511   4.736   3.311   5.295  0.6169  0.4906  1.5626
   19POPC   H5Y 2512   4.788   3.161   5.227  0.1910 -1.2383  0.1956
   19POPC   C36 2513   4.909   3.342   5.164 -0.4013  0.0249 -0.1993
   19POPC   H6X 2514   5.001   3.301   5.116  0.3846  1.3546  0.1060
   19POPC   H6Y 2515   4.945   3.435   5.214 -1.6410  1.1248 -1.2853
   19POPC   C37 2516   4.827   3.385   5.039  0.4841 -0.5360 -0.2734
   19POPC   H7X 2517   4.725   3.412   5.074  0.2051  3.1271 -3.3518
   19POPC   H7Y 2518   4.821   3.294   4.976  0.8594 -0.3471 -0.5896
   19POPC   C38 2519   4.897   3.493   4.954  0.2906 -0.3955  0.4305
   19POPC   H8X 2520   4.994   3.452   4.919  1.2149  3.1555 -1.6898
   19POPC   H8Y 2521   4.922   3.585   5.012 -0.0719  0.3995 -0.6346
   19POPC   C39 2522   4.823   3.519   4.825  0.1498  0.1483 -0.9910
   19POPC   H9X 2523   4.721   3.488   4.857  1.1034 -3.2606 -0.7831
   19POPC   H9Y 2524   4.855   3.443   4.750  0.2489 -3.0526  2.0453
   19POPC  C310 2525   4.842   3.653   4.772 -0.8098 -0.3692  0.2897
   19POPC  H10X 2526   4.953   3.648   4.772 -0.6470  1.6521  1.8390
   19POPC  H10Y 2527   4.811   3.737   4.838 -1.3155  0.8493 -1.4253
   19POPC  C311 2528   4.783   3.678   4.630  1.2336  0.1163 -0.3768
   19POPC  H11X 2529   4.771   3.578   4.584 -0.9160  0.6903 -1.1954
   19POPC  H11Y 2530   4.853   3.733   4.564 -0.0863  0.1712 -1.7811
   19POPC  C312 2531   4.654   3.759   4.627  0.8795 -0.2718 -0.5077
   19POPC  H12X 2532   4.673   3.857   4.675 -1.5671  0.1380 -0.2189
   19POPC  H12Y 2533   4.577   3.710   4.691  1.2368 -0.1913 -0.0058
   19POPC  C313 2534   4.605   3.779   4.483  0.0995  0.4129  0.3573
   19POPC  H13X 2535   4.598   3.681   4.431  1.5748 -0.5838  1.9454
   19POPC  H13Y 2536   4.686   3.825   4.422  2.1165 -2.4089  0.7032
   19POPC  C314 2537   4.477   3.860   4.464 -0.4733  0.1612 -0.2084
   19POPC  H14X 2538   4.476   3.898   4.360 -1.2228  0.4111 -0.1195
   19POPC  H14Y 2539   4.462   3.946   4.534 -1.4080  0.6912 -1.0207
   19POPC  C315 2540   4.347   3.762   4.486  0.2454 -0.6287 -0.3568
   19POPC  H15X 2541   4.377   3.701   4.574  0.6453 -1.1932 -0.8850
   19POPC  H15Y 2542   4.335   3.699   4.396  0.3411 -0.0034 -0.8146
   19POPC  C316 2543   4.218   3.842   4.513  0.3913  0.3370  0.0068
   19POPC  H16X 2544   4.130   3.790   4.469  0.3673  0.6312 -0.2923
   19POPC  H16Y 2545   4.232   3.944   4.471 -0.6081  0.9180  1.0352
   19POPC  H16Z 2546   4.190   3.838   4.621 -3.0411  0.7420 -0.7628
   20POPC     N 2547   0.484   3.637   6.182 -0.5035 -0.5055 -0.0820
   20POPC   C12 2548   0.481   3.486   6.153 -0.2896  0.2713  0.4798
   20POPC  H12A 2549   0.380   3.455   6.172 -1.0055  2.3107  0.3205
   20POPC  H12B 2550   0.542   3.434   6.225  0.0358 -0.6019 -0.4001
   20POPC   C13 2551   0.364   3.702   6.106 -0.6881  0.0248 -0.0135
   20POPC  H13A 2552   0.383   3.695   6.000  0.9040 -2.4074  0.3446
   20POPC  H13B 2553   0.275   3.644   6.125 -1.6018  0.8054 -1.7128
   20POPC  H13C 2554   0.330   3.801   6.133 -0.0012 -0.3502  2.5011
   20POPC   C14 2555   0.452   3.672   6.320  0.3310  0.3171 -0.0309
   20POPC  H14A 2556   0.349   3.651   6.344 -0.0866  2.1280 -0.1086
   20POPC  H14B 2557   0.502   3.618   6.399 -1.6359  0.3718  1.3370
   20POPC  H14C 2558   0.450   3.778   6.338 -1.4312 -0.0652  2.6293
   20POPC   C15 2559   0.613   3.700   6.141 -0.0224 -0.5018  0.1994
   20POPC  H15A 2560   0.698   3.648   6.183 -0.4781 -0.6147  1.0175
   20POPC  H15B 2561   0.611   3.803   6.174  0.1812 -0.0613 -1.1195
   20POPC  H15C 2562   0.618   3.689   6.034 -1.6140  0.7678 -0.0623
   20POPC   C11 2563   0.527   3.440   6.015  0.1529  0.0636  0.4737
   20POPC  H11A 2564   0.449   3.476   5.945 -1.1228 -1.5615  0.9821
   20POPC  H11B 2565   0.521   3.329   6.010 -1.4865  0.0517  1.8574
   20POPC     P 2566   0.783   3.402   6.043 -0.4939 -0.0939 -0.1891
   20POPC   O13 2567   0.756   3.256   6.022  0.1587 -0.2675 -0.1817
   20POPC   O14 2568   0.811   3.465   6.173 -0.2629  0.2375 -1.0959
   20POPC   O12 2569   0.661   3.478   5.975 -0.4229 -0.2211 -0.0279
   20POPC   O11 2570   0.903   3.438   5.945  0.7241 -0.0976 -0.1714
   20POPC    C1 2571   0.884   3.494   5.814  0.4583  0.1363  0.3364
   20POPC    HA 2572   0.982   3.535   5.782  1.0835 -1.0030  0.7219
   20POPC    HB 2573   0.814   3.580   5.816  0.1475 -0.1193  0.6029
   20POPC    C2 2574   0.830   3.396   5.708 -0.2780  0.2442 -0.4129
   20POPC    HS 2575   0.731   3.364   5.746 -0.0608  1.4656  1.2592
   20POPC   O21 2576   0.925   3.290   5.681 -0.0808  0.2616 -0.6338
   20POPC   C21 2577   0.877   3.173   5.659 -0.0182 -0.6287 -0.6404
   20POPC   O22 2578   0.759   3.139   5.658  0.4119 -0.2428 -0.1886
   20POPC   C22 2579   0.992   3.075   5.664  0.7132  0.1617  0.0134
   20POPC   H2R 2580   1.010   3.059   5.773 -1.6611 -1.7785  0.2000
   20POPC   H2S 2581   1.083   3.120   5.618  0.6163  0.7187  0.3554
   20POPC    C3 2582   0.806   3.465   5.574  1.5045 -0.4563  0.0718
   20POPC    HX 2583   0.730   3.546   5.586  2.0632 -0.0953  1.3109
   20POPC    HY 2584   0.764   3.395   5.499  0.8901  0.3060 -0.3222
   20POPC   O31 2585   0.922   3.516   5.514  0.2778 -0.8219  0.1896
   20POPC   C31 2586   0.943   3.644   5.499  0.2716 -0.3376 -0.0054
   20POPC   O32 2587   0.858   3.739   5.517 -0.0784  0.9845  0.1102
   20POPC   C32 2588   1.087   3.673   5.468 -0.6761 -0.6717 -0.0269
   20POPC   H2X 2589   1.144   3.659   5.562  1.0856 -1.1159 -1.1324
   20POPC   H2Y 2590   1.095   3.778   5.431  0.4831 -1.0616 -0.9332
   20POPC   C23 2591   0.958   2.932   5.613 -0.3922 -0.0611 -0.0676
   20POPC   H3R 2592   0.876   2.889   5.674  1.2322  0.5007  2.6671
   20POPC   H3S 2593   1.049   2.872   5.637  1.5699  2.4702 -0.7960
   20POPC   C24 2594   0.913   2.928   5.462 -0.2841  0.2775  0.4813
   20POPC   H4R 2595   0.985   2.983   5.398  1.3398 -2.0635  0.1485
   20POPC   H4S 2596   0.811   2.972   5.462 -0.0965  0.7773  2.0093
   20POPC   C25 2597   0.907   2.784   5.412 -0.7580 -0.1373  0.2650
   20POPC   H5R 2598   0.828   2.727   5.465 -2.8635  1.7746 -0.6160
   20POPC   H5S 2599   1.005   2.738   5.435  0.7827  2.0990 -1.3787
   20POPC   C26 2600   0.872   2.786   5.263 -0.6517  0.4880 -0.1880
   20POPC   H6R 2601   0.947   2.830   5.194  0.9627 -2.1222 -0.2631
   20POPC   H6S 2602   0.777   2.843   5.260  0.5777  2.6137 -1.7432
   20POPC   C27 2603   0.834   2.646   5.210  0.1296  1.0138 -0.0746
   20POPC   H7R 2604   0.764   2.598   5.283  0.8443 -0.3453 -0.2417
   20POPC   H7S 2605   0.928   2.589   5.197  0.3131  1.7012 -1.9455
   20POPC   C28 2606   0.769   2.652   5.072  0.3107  0.4722  0.1161
   20POPC   H8R 2607   0.831   2.687   4.987 -1.3295 -0.0926 -1.3735
   20POPC   H8S 2608   0.694   2.734   5.074  0.7530  0.8757  0.4306
   20POPC   C29 2609   0.704   2.519   5.042  0.0910  0.4617 -0.4100
   20POPC   H91 2610   0.599   2.510   5.073 -0.2326 -0.9232 -1.7410
   20POPC  C210 2611   0.765   2.409   4.994 -0.5335  0.6081 -0.1712
   20POPC  H101 2612   0.697   2.322   4.996 -1.1404  1.0763  1.2763
   20POPC  C211 2613   0.907   2.381   4.952  0.9376 -0.7171  0.1341
   20POPC  H11R 2614   0.974   2.469   4.958 -0.9556  0.6981  2.8532
   20POPC  H11S 2615   0.902   2.332   4.853  0.4797  0.5724 -0.5072
   20POPC  C212 2616   0.987   2.287   5.051 -0.2837 -0.0053  0.1894
   20POPC  H12R 2617   0.991   2.338   5.150 -1.0422 -1.5506  1.0526
   20POPC  H12S 2618   1.091   2.284   5.011  0.0298  0.6653  0.9244
   20POPC  C213 2619   0.938   2.143   5.065  0.7189  0.4060  0.1181
   20POPC  H13R 2620   1.027   2.079   5.084  0.1872 -0.2555  0.4248
   20POPC  H13S 2621   0.880   2.123   4.972  0.0600  0.2999  0.5449
   20POPC  C214 2622   0.849   2.123   5.188  0.3961  0.4385  0.5557
   20POPC  H14R 2623   0.798   2.024   5.186  1.2854 -0.0217  0.4492
   20POPC  H14S 2624   0.763   2.193   5.178  0.1773  0.2795  1.2600
   20POPC  C215 2625   0.920   2.151   5.326  0.0935  0.5535  0.0423
   20POPC  H15R 2626   0.947   2.259   5.332  0.3236  0.5876 -1.2846
   20POPC  H15S 2627   0.852   2.134   5.412  2.6447 -1.5090  1.8216
   20POPC  C216 2628   1.051   2.070   5.350 -0.3642 -0.5969 -0.0687
   20POPC  H16R 2629   1.131   2.121   5.293 -0.1865 -1.4297 -0.5813
   20POPC  H16S 2630   1.050   1.962   5.324  1.7599 -0.7397  0.2098
   20POPC  C217 2631   1.101   2.080   5.496 -0.1946 -0.1764  0.1730
   20POPC  H17R 2632   1.021   2.082   5.573 -0.8828 -0.2588 -0.5273
   20POPC  H17S 2633   1.133   2.186   5.507  0.6206 -0.4165  0.1430
   20POPC  C218 2634   1.206   1.980   5.530 -0.4087 -0.1905 -0.1235
   20POPC  H18R 2635   1.234   1.997   5.636 -2.8477  1.9805  0.2706
   20POPC  H18S 2636   1.295   1.998   5.467  1.2954 -1.6635  1.7259
   20POPC  H18T 2637   1.178   1.874   5.511  2.0453 -1.0619  0.7334
   20POPC   C33 2638   1.153   3.576   5.372  0.4350  0.0444  0.5417
   20POPC   H3X 2639   1.141   3.468   5.396  2.4664  0.2333  2.7587
   20POPC   H3Y 2640   1.264   3.587   5.376  0.2380  1.9079  1.7433
   20POPC   C34 2641   1.107   3.596   5.226 -0.0657 -0.7772  0.6192
   20POPC   H4X 2642   1.147   3.694   5.192  0.7350 -1.5157 -0.6748
   20POPC   H4Y 2643   0.996   3.593   5.214 -0.1728  0.6757  0.9812
   20POPC   C35 2644   1.165   3.491   5.127  0.2069  0.3671  1.0814
   20POPC   H5X 2645   1.275   3.481   5.130  0.0997 -0.7420  1.8968
   20POPC   H5Y 2646   1.146   3.522   5.022 -0.5697 -1.1072  0.7566
   20POPC   C36 2647   1.096   3.354   5.135 -0.4078 -0.4916  0.1978
   20POPC   H6X 2648   0.995   3.367   5.091 -0.0204 -0.8870 -0.8481
   20POPC   H6Y 2649   1.100   3.319   5.241  0.5042 -0.5254  0.1570
   20POPC   C37 2650   1.170   3.233   5.066 -0.1537  0.1097 -0.6211
   20POPC   H7X 2651   1.120   3.134   5.071  2.9369 -1.5422  2.9439
   20POPC   H7Y 2652   1.270   3.224   5.114 -0.2006  0.6951 -0.4018
   20POPC   C38 2653   1.216   3.255   4.920 -0.1725  0.7330  0.0153
   20POPC   H8X 2654   1.289   3.172   4.905  0.0666  0.9592 -0.0778
   20POPC   H8Y 2655   1.278   3.347   4.919  1.5437 -0.3747 -1.2974
   20POPC   C39 2656   1.103   3.225   4.821 -0.0004 -0.1348 -0.0962
   20POPC   H9X 2657   1.031   3.309   4.826  0.5927  0.3062  1.4440
   20POPC   H9Y 2658   1.050   3.133   4.853  2.4124 -1.1838  1.1188
   20POPC  C310 2659   1.141   3.212   4.675 -0.6785 -0.1761 -0.0326
   20POPC  H10X 2660   1.199   3.117   4.674 -0.9488 -0.3477  0.2884
   20POPC  H10Y 2661   1.205   3.300   4.654 -2.7334  1.3214 -0.2793
   20POPC  C311 2662   1.033   3.202   4.567  0.6549  0.2350 -0.1485
   20POPC  H11X 2663   0.965   3.290   4.565  0.5145  0.1150 -1.4677
   20POPC  H11Y 2664   0.969   3.113   4.582  2.7916 -1.6565 -1.5281
   20POPC  C312 2665   1.083   3.195   4.421  0.7153 -0.1107  0.5596
   20POPC  H12X 2666   0.991   3.178   4.362 -0.8190 -1.9053  3.2521
   20POPC  H12Y 2667   1.151   3.110   4.399  0.4047  0.3670 -2.7527
   20POPC  C313 2668   1.160   3.313   4.360  0.2276 -0.0000 -0.0076
   20POPC  H13X 2669   1.268   3.299   4.379 -0.1014 -0.1693  1.9284
   20POPC  H13Y 2670   1.126   3.409   4.404  0.0452 -0.4717  0.9140
   20POPC  C314 2671   1.136   3.317   4.208 -0.3814 -0.7088  0.1496
   20POPC  H14X 2672   1.028   3.335   4.189 -0.6474 -0.1763  1.9809
   20POPC  H14Y 2673   1.182   3.233   4.150  1.5109  0.6758 -0.4797
   20POPC  C315 2674   1.215   3.441   4.149  0.3430  0.3380 -0.3717
   20POPC  H15X 2675   1.195   3.456   4.041 -0.8517  1.4313 -0.0245
   20POPC  H15Y 2676   1.322   3.418   4.168  0.2100  1.2380  1.7449
   20POPC  C316 2677   1.197   3.578   4.216  0.3508 -0.0669  0.4737
   20POPC  H16X 2678   1.222   3.576   4.324  0.9404  0.2135  0.3500
   20POPC  H16Y 2679   1.095   3.619   4.204  1.4137  2.6756 -0.0058
   20POPC  H16Z 2680   1.264   3.653   4.169 -0.3843  1.5170  1.8220
   21POPC     N 2681   3.939   5.548   6.161 -0.3035 -0.0310 -0.2222
   21POPC   C12 2682   4.045   5.448   6.129  0.2089 -0.1193  0.1359
   21POPC  H12A 2683   4.092   5.413   6.220  1.1146 -1.6901 -0.8865
   21POPC  H12B 2684   4.125   5.508   6.087  0.3265 -1.0224 -1.0084
   21POPC   C13 2685   3.888   5.613   6.036  0.4816  0.7471 -0.6904
   21POPC  H13A 2686   3.969   5.668   5.990  1.5817  0.0239  0.3169
   21POPC  H13B 2687   3.862   5.538   5.963  2.2989  1.9796 -2.7164
   21POPC  H13C 2688   3.803   5.676   6.060  0.0235  0.2870 -1.0981
   21POPC   C14 2689   3.828   5.490   6.236 -0.0483  0.7948  0.0126
   21POPC  H14A 2690   3.748   5.562   6.243  1.3072  2.3411  0.0572
   21POPC  H14B 2691   3.793   5.400   6.187  0.0524  1.1382 -0.7065
   21POPC  H14C 2692   3.858   5.464   6.336  4.0721  2.4742 -0.5717
   21POPC   C15 2693   4.001   5.664   6.240  0.0191  0.1503  0.8927
   21POPC  H15A 2694   3.923   5.736   6.258  0.5016  0.7479  0.6013
   21POPC  H15B 2695   4.071   5.720   6.181 -0.0365 -0.5361  0.1586
   21POPC  H15C 2696   4.056   5.632   6.328 -0.0640 -0.9459  0.5653
   21POPC   C11 2697   4.016   5.330   6.034 -0.0040  0.4592 -0.0765
   21POPC  H11A 2698   4.113   5.278   6.023  1.1283  1.8016  2.4873
   21POPC  H11B 2699   3.988   5.362   5.932 -1.2618 -0.5280 -0.0628
   21POPC     P 2700   3.851   5.119   6.036 -0.1162  0.0584  0.1994
   21POPC   O13 2701   3.765   5.063   6.143 -1.3902 -0.5842 -0.2002
   21POPC   O14 2702   3.952   5.029   5.972  0.2750 -0.1563  0.0033
   21POPC   O12 2703   3.914   5.249   6.093 -0.4854  0.6371  0.2176
   21POPC   O11 2704   3.759   5.171   5.923  0.6545  0.0699 -0.2409
   21POPC    C1 2705   3.656   5.091   5.856 -0.0533 -0.3676  0.4620
   21POPC    HA 2706   3.554   5.133   5.862  0.1737  0.0736  1.4627
   21POPC    HB 2707   3.640   4.991   5.902  3.9056 -1.7583 -0.7125
   21POPC    C2 2708   3.693   5.077   5.706 -0.5224  0.9207 -0.3125
   21POPC    HS 2709   3.613   5.005   5.678  0.5919 -0.5270  0.1205
   21POPC   O21 2710   3.819   5.021   5.660  0.0850  0.1987 -0.1431
   21POPC   C21 2711   3.840   4.907   5.711 -0.0984 -0.2524  0.3505
   21POPC   O22 2712   3.761   4.840   5.771  0.1880 -0.3434  0.5317
   21POPC   C22 2713   3.984   4.869   5.678  0.0817 -0.4008  0.1547
   21POPC   H2R 2714   3.971   4.787   5.603 -0.0154 -0.2570  0.0146
   21POPC   H2S 2715   4.024   4.816   5.767 -2.0754 -3.5451 -0.5724
   21POPC    C3 2716   3.674   5.213   5.636  0.0359 -0.4335 -0.4530
   21POPC    HX 2717   3.768   5.273   5.633  0.5605 -1.2738 -1.4092
   21POPC    HY 2718   3.600   5.272   5.693  1.0640  1.4641 -0.9815
   21POPC   O31 2719   3.638   5.185   5.501  0.8946  0.2225  0.3573
   21POPC   C31 2720   3.512   5.170   5.483 -1.1043  0.2394  0.3624
   21POPC   O32 2721   3.424   5.199   5.559  1.0396 -0.4651  0.1299
   21POPC   C32 2722   3.483   5.112   5.350 -0.1454  0.2013  0.0441
   21POPC   H2X 2723   3.492   5.002   5.354 -2.0290  0.0182 -0.2442
   21POPC   H2Y 2724   3.559   5.153   5.280 -0.2481 -2.6603 -1.8972
   21POPC   C23 2725   4.092   4.974   5.641  0.0550 -0.5188  0.0768
   21POPC   H3R 2726   4.106   5.044   5.725  1.9665  0.5043 -1.0141
   21POPC   H3S 2727   4.049   5.028   5.555  2.9340 -1.3872 -2.0921
   21POPC   C24 2728   4.222   4.910   5.599 -0.2959 -0.0401  0.5459
   21POPC   H4R 2729   4.204   4.831   5.522 -2.5362  0.8232  0.0952
   21POPC   H4S 2730   4.256   4.856   5.690 -1.4433 -1.4078  0.2046
   21POPC   C25 2731   4.332   5.008   5.555 -0.2570  0.1263  0.6541
   21POPC   H5R 2732   4.350   5.082   5.636  2.8285 -1.3295  1.4716
   21POPC   H5S 2733   4.301   5.060   5.463 -1.2165 -3.3304 -1.1331
   21POPC   C26 2734   4.473   4.933   5.541  0.5078  0.2580 -0.5233
   21POPC   H6R 2735   4.465   4.877   5.637 -0.8338 -0.8565 -1.2538
   21POPC   H6S 2736   4.546   5.017   5.542  1.0920 -0.2389  0.3454
   21POPC   C27 2737   4.490   4.854   5.414  0.1735 -0.2497  0.0941
   21POPC   H7R 2738   4.467   4.911   5.321  0.8885  0.5251  0.3823
   21POPC   H7S 2739   4.427   4.762   5.411 -1.0415  0.5530  0.5370
   21POPC   C28 2740   4.631   4.802   5.399  0.0906 -0.0577 -0.8816
   21POPC   H8R 2741   4.626   4.721   5.323  0.7927  0.3236 -1.3386
   21POPC   H8S 2742   4.661   4.755   5.495 -1.4075  1.9248  0.6512
   21POPC   C29 2743   4.733   4.905   5.361  0.1052 -0.0202  0.5650
   21POPC   H91 2744   4.751   4.978   5.441  0.7310 -0.1659  0.5577
   21POPC  C210 2745   4.782   4.926   5.239  0.5956  0.2716  0.2019
   21POPC  H101 2746   4.863   5.000   5.231  1.6209 -0.7097  1.0241
   21POPC  C211 2747   4.761   4.851   5.109  0.1059  0.5401  0.0508
   21POPC  H11R 2748   4.699   4.762   5.134  3.1112 -1.2320  1.7919
   21POPC  H11S 2749   4.855   4.818   5.059  0.5490 -0.9743  1.7770
   21POPC  C212 2750   4.701   4.940   4.996 -0.2492  0.0381  0.6168
   21POPC  H12R 2751   4.767   5.029   4.988  0.5300 -0.5373  0.6055
   21POPC  H12S 2752   4.599   4.980   5.015 -0.1864  2.7377 -3.3868
   21POPC  C213 2753   4.692   4.863   4.862  0.3208 -0.5562 -0.2683
   21POPC  H13R 2754   4.627   4.773   4.876 -2.9263  1.9318  2.3198
   21POPC  H13S 2755   4.794   4.840   4.825  0.5818 -0.2369  0.2466
   21POPC  C214 2756   4.623   4.958   4.766  0.0934  0.4296 -0.0591
   21POPC  H14R 2757   4.660   5.063   4.775  0.2476  0.5003 -1.3326
   21POPC  H14S 2758   4.514   4.958   4.784  0.4879  0.3916  2.6528
   21POPC  C215 2759   4.637   4.931   4.615 -0.2851  0.4963 -0.2047
   21POPC  H15R 2760   4.594   4.832   4.589 -0.6715  0.9125 -1.1929
   21POPC  H15S 2761   4.743   4.922   4.583 -0.7801 -2.8302 -1.2829
   21POPC  C216 2762   4.569   5.039   4.528 -0.1597 -0.6144  0.1835
   21POPC  H16R 2763   4.461   5.046   4.556 -0.4435 -0.2449 -0.9258
   21POPC  H16S 2764   4.568   5.009   4.421 -0.9775 -0.5136  0.1506
   21POPC  C217 2765   4.628   5.183   4.542 -0.7096  0.2383  0.0859
   21POPC  H17R 2766   4.650   5.208   4.648  0.5381  0.4709 -0.2061
   21POPC  H17S 2767   4.548   5.243   4.494 -0.6783 -0.6457 -1.1145
   21POPC  C218 2768   4.758   5.214   4.472 -0.2950 -1.1714  0.4854
   21POPC  H18R 2769   4.778   5.323   4.489  1.2764 -1.4288  0.4559
   21POPC  H18S 2770   4.761   5.198   4.362  0.2036 -2.8523  0.7167
   21POPC  H18T 2771   4.847   5.173   4.524 -0.4699 -1.4917  0.5301
   21POPC   C33 2772   3.337   5.129   5.289  0.2217 -0.5350  0.3968
   21POPC   H3X 2773   3.319   5.237   5.267 -0.8441 -0.8724 -0.4941
   21POPC   H3Y 2774   3.255   5.109   5.361  1.7014  0.5869  2.4811
   21POPC   C34 2775   3.320   5.041   5.167 -0.1294  0.2015 -0.2963
   21POPC   H4X 2776   3.214   5.045   5.136 -0.1607  1.7508 -0.0635
   21POPC   H4Y 2777   3.349   4.940   5.204 -1.8216  0.1759  1.0488
   21POPC   C35 2778   3.399   5.082   5.046 -0.1931 -0.5426 -0.2476
   21POPC   H5X 2779   3.506   5.067   5.073 -0.3876 -0.5669  0.5548
   21POPC   H5Y 2780   3.392   5.191   5.028  0.8910 -0.4749 -0.3240
   21POPC   C36 2781   3.372   4.996   4.922  0.4262  0.5552  0.2851
   21POPC   H6X 2782   3.263   5.002   4.901 -0.0042 -1.3771  1.6821
   21POPC   H6Y 2783   3.373   4.889   4.952 -2.4933  0.9679  2.3708
   21POPC   C37 2784   3.461   5.024   4.797 -0.0896  0.2121 -0.2324
   21POPC   H7X 2785   3.448   4.945   4.720 -0.0085 -0.5300  0.4929
   21POPC   H7Y 2786   3.569   5.036   4.823  0.0059  1.2942 -1.0610
   21POPC   C38 2787   3.416   5.160   4.742  0.3468 -0.3126 -0.6648
   21POPC   H8X 2788   3.427   5.240   4.818  0.7713 -1.2366  0.2841
   21POPC   H8Y 2789   3.305   5.161   4.730  0.2275 -1.0444  0.2316
   21POPC   C39 2790   3.450   5.203   4.605  0.4756  0.3235 -0.7507
   21POPC   H9X 2791   3.422   5.125   4.530 -1.4552  1.6920 -1.5302
   21POPC   H9Y 2792   3.561   5.200   4.612  0.4696  2.5245  1.3190
   21POPC  C310 2793   3.398   5.338   4.569 -0.1110 -0.3591  1.1112
   21POPC  H10X 2794   3.426   5.412   4.648  2.1044 -0.7022  0.6885
   21POPC  H10Y 2795   3.288   5.330   4.556  0.0799 -2.3176  0.5113
   21POPC  C311 2796   3.431   5.380   4.425 -0.0729  0.2610  0.2875
   21POPC  H11X 2797   3.386   5.317   4.344  2.2169  0.6894 -1.3988
   21POPC  H11Y 2798   3.539   5.374   4.402 -0.3373  0.4571 -1.1404
   21POPC  C312 2799   3.395   5.523   4.386  0.5893 -0.7262 -0.2200
   21POPC  H12X 2800   3.451   5.587   4.458  0.4874  0.0939 -0.8496
   21POPC  H12Y 2801   3.285   5.539   4.396  0.4610 -1.0533 -1.0359
   21POPC  C313 2802   3.441   5.559   4.240 -0.1028  0.0236 -0.0053
   21POPC  H13X 2803   3.545   5.526   4.219  0.2217  0.4362  0.8794
   21POPC  H13Y 2804   3.437   5.669   4.229 -3.7409 -0.1116 -1.4010
   21POPC  C314 2805   3.358   5.502   4.133 -0.0828  0.6887 -0.5337
   21POPC  H14X 2806   3.249   5.495   4.156 -0.2038  2.4259 -0.4641
   21POPC  H14Y 2807   3.393   5.397   4.121 -0.2713 -0.3464  5.0583
   21POPC  C315 2808   3.377   5.566   3.994  0.1207  0.0820 -0.1336
   21POPC  H15X 2809   3.477   5.546   3.950  1.0583 -0.2133  2.0216
   21POPC  H15Y 2810   3.360   5.676   3.993  0.4359  0.1365  0.4332
   21POPC  C316 2811   3.275   5.511   3.899 -0.1489 -0.0320  0.6467
   21POPC  H16X 2812   3.278   5.567   3.803 -0.3717 -1.2621 -0.1013
   21POPC  H16Y 2813   3.175   5.524   3.945 -0.3490  0.7288  0.0210
   21POPC  H16Z 2814   3.295   5.404   3.875  1.9213  0.4435  0.0727
   22POPC     N 2815   2.768   5.743   6.364  0.1492 -0.3390  0.0312
   22POPC   C12 2816   2.676   5.625   6.388  0.3925 -0.1821  0.1862
   22POPC  H12A 2817   2.578   5.663   6.414 -1.0886 -3.0713 -0.7851
   22POPC  H12B 2818   2.698   5.569   6.478 -1.3710 -0.4781  0.4629
   22POPC   C13 2819   2.786   5.809   6.499  0.2940  0.6816 -0.6880
   22POPC  H13A 2820   2.871   5.876   6.494  0.0157  0.9701 -1.8450
   22POPC  H13B 2821   2.696   5.860   6.529  0.7233  0.2622  1.4844
   22POPC  H13C 2822   2.798   5.739   6.580 -1.0968  0.5947 -0.5415
   22POPC   C14 2823   2.906   5.694   6.326  0.1445  0.7886 -0.7658
   22POPC  H14A 2824   2.900   5.643   6.231 -0.9546 -2.2301  0.8095
   22POPC  H14B 2825   2.986   5.767   6.323 -0.4488  1.4359 -2.2232
   22POPC  H14C 2826   2.936   5.611   6.387  0.5043  0.0105 -1.9592
   22POPC   C15 2827   2.707   5.844   6.271 -0.2146  0.0755 -0.1278
   22POPC  H15A 2828   2.699   5.805   6.171  1.2246 -2.9302  0.8338
   22POPC  H15B 2829   2.757   5.940   6.274 -2.1832  1.2509  4.7357
   22POPC  H15C 2830   2.607   5.872   6.303  0.0753 -0.5688  1.3935
   22POPC   C11 2831   2.644   5.528   6.272 -0.2617 -0.4926  0.1923
   22POPC  H11A 2832   2.594   5.579   6.187  2.0241  3.4298  0.9410
   22POPC  H11B 2833   2.563   5.457   6.300 -0.3467 -0.2784  0.4963
   22POPC     P 2834   2.840   5.348   6.306  0.5936 -0.1511 -0.0568
   22POPC   O13 2835   2.747   5.231   6.332 -0.4088 -0.3771  0.8334
   22POPC   O14 2836   2.913   5.397   6.423  0.8043 -0.3380 -0.1358
   22POPC   O12 2837   2.764   5.461   6.222  0.1942  0.5558  0.5008
   22POPC   O11 2838   2.944   5.287   6.208 -0.2523  0.4574 -0.2569
   22POPC    C1 2839   2.899   5.246   6.076  0.3199 -0.2725 -0.5071
   22POPC    HA 2840   2.939   5.319   6.002  1.5418 -1.1646 -0.7619
   22POPC    HB 2841   2.790   5.248   6.059  0.6838 -1.2889 -3.6275
   22POPC    C2 2842   2.941   5.103   6.058 -0.8147  0.0162 -0.2053
   22POPC    HS 2843   2.910   5.051   6.151 -0.1503  1.0108  0.5824
   22POPC   O21 2844   3.084   5.103   6.046  0.7254 -0.0864 -0.6986
   22POPC   C21 2845   3.132   4.985   6.073 -0.5965  0.0100  0.1390
   22POPC   O22 2846   3.069   4.886   6.109 -0.4581  0.3659 -0.0941
   22POPC   C22 2847   3.283   4.990   6.051 -0.6888  0.4396  0.4975
   22POPC   H2R 2848   3.339   4.982   6.146  1.4437 -0.5899 -0.7797
   22POPC   H2S 2849   3.298   5.092   6.009 -1.8220  0.4207  0.0182
   22POPC    C3 2850   2.879   5.034   5.934  0.1609  0.2411 -0.2300
   22POPC    HX 2851   2.777   5.012   5.972  0.9817 -1.2280  1.2355
   22POPC    HY 2852   2.921   4.934   5.907 -1.4998 -0.3127 -0.9260
   22POPC   O31 2853   2.871   5.122   5.821 -0.1344  0.4315 -0.5798
   22POPC   C31 2854   2.987   5.143   5.759  0.1047  0.5849 -0.1715
   22POPC   O32 2855   3.089   5.078   5.780  0.6915 -0.1336 -0.2391
   22POPC   C32 2856   2.972   5.254   5.661 -0.8215  0.3017 -0.3310
   22POPC   H2X 2857   2.982   5.353   5.711 -0.9890  0.8106 -1.2858
   22POPC   H2Y 2858   2.872   5.252   5.612 -1.1582  2.4836  0.1315
   22POPC   C23 2859   3.331   4.861   5.969  0.0278 -0.9685  0.4263
   22POPC   H3R 2860   3.283   4.772   6.014 -0.8813 -1.9034 -2.2148
   22POPC   H3S 2861   3.441   4.859   5.987 -0.1315  1.6509  2.1933
   22POPC   C24 2862   3.312   4.870   5.815  0.2388  0.3706 -0.0583
   22POPC   H4R 2863   3.329   4.975   5.782  2.1985  0.8032  2.0590
   22POPC   H4S 2864   3.203   4.851   5.807 -0.5400  3.7663  0.9934
   22POPC   C25 2865   3.399   4.767   5.734 -0.2976  0.1581  0.4983
   22POPC   H5R 2866   3.380   4.664   5.772  0.1470 -0.7175 -1.5688
   22POPC   H5S 2867   3.505   4.795   5.750  0.3166 -1.1493 -1.0293
   22POPC   C26 2868   3.376   4.761   5.581 -0.2007  0.0851  0.1465
   22POPC   H6R 2869   3.381   4.862   5.535 -3.2536 -0.9006 -2.7840
   22POPC   H6S 2870   3.272   4.734   5.552 -0.0721  1.0949 -1.3724
   22POPC   C27 2871   3.486   4.669   5.519 -0.7716  0.0656  0.5957
   22POPC   H7R 2872   3.579   4.671   5.580 -0.2481  2.8425 -0.1272
   22POPC   H7S 2873   3.511   4.713   5.420  1.7941 -0.2653  1.0349
   22POPC   C28 2874   3.444   4.520   5.511 -0.3715  0.2626  0.4347
   22POPC   H8R 2875   3.379   4.505   5.600 -1.7335 -0.9830 -0.6984
   22POPC   H8S 2876   3.524   4.443   5.520  0.5693  1.1121 -0.4261
   22POPC   C29 2877   3.364   4.493   5.384 -0.0096 -0.4829  0.1585
   22POPC   H91 2878   3.258   4.521   5.380  0.7173  2.6904  0.3668
   22POPC  C210 2879   3.409   4.432   5.275 -0.2963  0.0622  0.6992
   22POPC  H101 2880   3.331   4.401   5.204 -0.3364  1.5909  0.0468
   22POPC  C211 2881   3.553   4.393   5.241  0.1457  0.1147 -0.3800
   22POPC  H11R 2882   3.564   4.283   5.252  1.4818 -0.0285 -2.4718
   22POPC  H11S 2883   3.618   4.445   5.314  1.7382 -0.5787 -1.2508
   22POPC  C212 2884   3.591   4.429   5.096  0.3099  0.4714 -0.1953
   22POPC  H12R 2885   3.598   4.538   5.077  1.0637  0.3530 -0.6423
   22POPC  H12S 2886   3.506   4.395   5.032  0.4100  1.4647 -0.8785
   22POPC  C213 2887   3.728   4.362   5.056  0.0309 -0.1240  0.7374
   22POPC  H13R 2888   3.743   4.257   5.090  1.4501 -0.8880 -1.9326
   22POPC  H13S 2889   3.808   4.423   5.103 -0.3618 -0.5962  2.0423
   22POPC  C214 2890   3.752   4.373   4.907 -0.7807  0.7920 -0.5503
   22POPC  H14R 2891   3.710   4.467   4.865  0.6395  1.7454  0.1031
   22POPC  H14S 2892   3.681   4.296   4.870 -1.6110  1.2501  0.0366
   22POPC  C215 2893   3.895   4.348   4.861  0.3442  0.8337 -0.2578
   22POPC  H15R 2894   3.918   4.245   4.895 -2.1080 -0.2073 -1.5028
   22POPC  H15S 2895   3.969   4.419   4.903  1.8892 -0.6097 -0.4594
   22POPC  C216 2896   3.909   4.348   4.708 -0.0063 -0.2606  0.6129
   22POPC  H16R 2897   3.850   4.436   4.673  1.1253  0.3361  0.1526
   22POPC  H16S 2898   3.870   4.253   4.667 -2.8607 -0.3382  3.1410
   22POPC  C217 2899   4.055   4.354   4.666 -0.8946  0.2353 -0.2976
   22POPC  H17R 2900   4.059   4.387   4.560  1.6865  1.1478  0.0250
   22POPC  H17S 2901   4.089   4.445   4.718 -2.4516  1.4961 -1.3845
   22POPC  C218 2902   4.133   4.223   4.690  0.2116 -0.2367 -0.2973
   22POPC  H18R 2903   4.079   4.138   4.644  1.9118 -2.2982  1.3229
   22POPC  H18S 2904   4.154   4.204   4.798  1.5356  2.0555 -0.0820
   22POPC  H18T 2905   4.234   4.241   4.648  0.2681  3.3550  0.9841
   22POPC   C33 2906   3.088   5.248   5.558  0.0367  0.1456 -0.0687
   22POPC   H3X 2907   3.094   5.142   5.526  0.3257 -1.1605  3.8337
   22POPC   H3Y 2908   3.182   5.266   5.614 -0.7911 -0.0040  1.4091
   22POPC   C34 2909   3.064   5.343   5.446 -0.2636 -0.0993  0.0026
   22POPC   H4X 2910   2.963   5.390   5.450 -1.9146 -3.4133  1.8719
   22POPC   H4Y 2911   3.071   5.285   5.351 -1.7543  2.2797 -1.6925
   22POPC   C35 2912   3.177   5.452   5.430  0.3385 -0.0803  0.1880
   22POPC   H5X 2913   3.275   5.414   5.466  0.4637  0.0781  0.0163
   22POPC   H5Y 2914   3.157   5.544   5.489  1.5084  0.6252 -0.4494
   22POPC   C36 2915   3.178   5.506   5.288 -1.0777  0.2457  0.2208
   22POPC   H6X 2916   3.219   5.441   5.207 -1.4542 -0.9230  0.9407
   22POPC   H6Y 2917   3.243   5.596   5.285 -0.1273 -0.4207  0.3338
   22POPC   C37 2918   3.038   5.547   5.223  0.2947 -0.3398  0.7050
   22POPC   H7X 2919   2.975   5.596   5.301  0.1168  2.8395 -1.2692
   22POPC   H7Y 2920   2.991   5.451   5.191 -0.8278  1.5581 -4.2465
   22POPC   C38 2921   3.062   5.635   5.099 -0.1314  0.6137 -0.3287
   22POPC   H8X 2922   3.118   5.574   5.025 -1.0104 -0.5611 -0.0627
   22POPC   H8Y 2923   3.119   5.729   5.118  0.4930  0.1593  0.0718
   22POPC   C39 2924   2.930   5.670   5.040 -0.0200 -0.4178  0.1638
   22POPC   H9X 2925   2.873   5.728   5.116  1.9208 -1.0599  2.2370
   22POPC   H9Y 2926   2.875   5.577   5.015 -0.6822 -0.1899  0.7284
   22POPC  C310 2927   2.955   5.756   4.911  0.0602  0.0432  0.1746
   22POPC  H10X 2928   3.019   5.694   4.845 -0.2639  1.0531 -1.1589
   22POPC  H10Y 2929   3.017   5.845   4.936  1.0916 -0.6226  0.0272
   22POPC  C311 2930   2.830   5.796   4.831 -0.4066 -0.2082 -0.2105
   22POPC  H11X 2931   2.781   5.709   4.783 -0.4836  0.0937 -0.6956
   22POPC  H11Y 2932   2.861   5.854   4.741 -2.4843 -0.9712 -1.4943
   22POPC  C312 2933   2.730   5.865   4.921 -0.3453  0.5932 -0.5654
   22POPC  H12X 2934   2.780   5.907   5.011  2.3450 -0.3773 -1.5317
   22POPC  H12Y 2935   2.669   5.782   4.962  0.1815  0.2783 -0.4168
   22POPC  C313 2936   2.647   5.970   4.856 -0.2507 -0.5119 -0.1201
   22POPC  H13X 2937   2.578   5.933   4.777 -1.4038 -0.6130  0.9153
   22POPC  H13Y 2938   2.713   6.050   4.815 -1.6974  1.9233  1.9888
   22POPC  C314 2939   2.559   6.050   4.961 -0.1028 -0.5214 -0.3509
   22POPC  H14X 2940   2.518   6.141   4.912 -1.3982  0.0307  1.6303
   22POPC  H14Y 2941   2.628   6.087   5.040 -3.0996  0.6071  1.9185
   22POPC  C315 2942   2.450   5.972   5.034  0.4023 -0.3365  0.0810
   22POPC  H15X 2943   2.439   6.014   5.136  0.1334 -1.8111  0.6759
   22POPC  H15Y 2944   2.475   5.867   5.059  1.4245 -0.3131 -0.7499
   22POPC  C316 2945   2.310   5.976   4.976 -0.2473  0.6124  0.3196
   22POPC  H16X 2946   2.307   5.977   4.865 -0.6176 -2.5048  0.2148
   22POPC  H16Y 2947   2.247   6.061   5.009 -1.8988  0.7720 -2.8613
   22POPC  H16Z 2948   2.251   5.885   4.999  0.5892 -0.6978 -2.3036
   23POPC     N 2949   5.354   1.362   6.135 -0.0349  0.1417 -0.7320
   23POPC   C12 2950   5.424   1.375   5.999 -0.5765 -0.5872  0.0440
   23POPC  H12A 2951   5.485   1.286   5.988  0.9764  0.3852  0.3767
   23POPC  H12B 2952   5.488   1.461   6.014  0.1723 -0.9274 -1.0524
   23POPC   C13 2953   5.253   1.468   6.150  0.7022 -0.0740 -0.2725
   23POPC  H13A 2954   5.295   1.567   6.151  0.7918 -0.0367  2.6892
   23POPC  H13B 2955   5.183   1.462   6.068 -0.1177 -1.2544  0.4781
   23POPC  H13C 2956   5.206   1.445   6.244  0.6865 -0.0207 -0.2679
   23POPC   C14 2957   5.288   1.233   6.173 -0.5127  0.3291  0.3506
   23POPC  H14A 2958   5.350   1.148   6.149 -0.6382  0.3160  0.0744
   23POPC  H14B 2959   5.269   1.209   6.276 -1.3870 -2.4024 -0.3752
   23POPC  H14C 2960   5.193   1.232   6.122  0.3129  2.3482 -1.4029
   23POPC   C15 2961   5.455   1.381   6.242  0.0766  0.0231 -0.2737
   23POPC  H15A 2962   5.478   1.484   6.263  0.2391  0.3274 -1.8515
   23POPC  H15B 2963   5.541   1.316   6.227  1.5309  2.0658 -1.2573
   23POPC  H15C 2964   5.412   1.358   6.338 -1.2221 -0.5255 -0.9700
   23POPC   C11 2965   5.330   1.394   5.877  0.2787  0.3295  0.0569
   23POPC  H11A 2966   5.394   1.376   5.789 -2.3157  0.4354 -1.9900
   23POPC  H11B 2967   5.296   1.500   5.873  0.7757  0.4475 -1.8898
   23POPC     P 2968   5.082   1.317   5.846  0.6373 -0.4318  0.1917
   23POPC   O13 2969   5.016   1.378   5.961  0.1054 -0.0304 -0.5175
   23POPC   O14 2970   5.026   1.192   5.793 -0.0553  0.3033  0.5749
   23POPC   O12 2971   5.230   1.294   5.878 -0.6039 -0.2007 -0.3860
   23POPC   O11 2972   5.102   1.425   5.736  0.0788 -0.0794 -0.2794
   23POPC    C1 2973   5.069   1.561   5.749 -0.1057  0.5367 -0.4585
   23POPC    HA 2974   5.142   1.626   5.695 -0.0131  0.7772 -0.0452
   23POPC    HB 2975   5.076   1.590   5.856  2.2178  1.6574 -0.8517
   23POPC    C2 2976   4.929   1.600   5.706  0.3913  0.6197  0.0028
   23POPC    HS 2977   4.853   1.557   5.775 -0.4787  1.1307 -0.6226
   23POPC   O21 2978   4.903   1.556   5.573 -0.1902  0.3490 -0.0095
   23POPC   C21 2979   4.776   1.528   5.549  0.0438 -0.0903 -0.1880
   23POPC   O22 2980   4.686   1.538   5.626  0.2625 -0.3598 -0.0436
   23POPC   C22 2981   4.758   1.477   5.408  0.2412  0.0032  0.6677
   23POPC   H2R 2982   4.825   1.389   5.403 -2.3897 -2.1397  1.0115
   23POPC   H2S 2983   4.780   1.554   5.331  0.2324 -1.0832 -0.4486
   23POPC    C3 2984   4.909   1.753   5.708 -0.2624 -0.3179  0.0055
   23POPC    HX 2985   4.912   1.786   5.814  0.7056 -1.8148  0.4802
   23POPC    HY 2986   4.806   1.784   5.681  0.4453  2.2449  0.0178
   23POPC   O31 2987   5.006   1.814   5.617 -0.2397 -0.0318 -0.1364
   23POPC   C31 2988   4.965   1.826   5.496  0.1909  0.9076  0.4436
   23POPC   O32 2989   4.852   1.817   5.459  0.3126 -0.4528  0.0433
   23POPC   C32 2990   5.087   1.835   5.405  0.4625 -0.0312 -0.0974
   23POPC   H2X 2991   5.149   1.746   5.428  0.6951  0.2589  0.3946
   23POPC   H2Y 2992   5.141   1.931   5.419  2.7085 -1.3219  0.5643
   23POPC   C23 2993   4.609   1.429   5.387 -0.6494 -0.5929  0.4337
   23POPC   H3R 2994   4.558   1.526   5.405  0.0291  0.0584 -1.0150
   23POPC   H3S 2995   4.588   1.361   5.473 -1.7615 -0.7261  0.0741
   23POPC   C24 2996   4.569   1.366   5.254  0.4161 -0.1072 -0.3432
   23POPC   H4R 2997   4.459   1.374   5.246  0.5574  1.7743 -0.8889
   23POPC   H4S 2998   4.593   1.258   5.253 -1.1173 -0.4735  0.2566
   23POPC   C25 2999   4.630   1.423   5.130  0.2678  0.5620  0.2887
   23POPC   H5R 3000   4.717   1.359   5.105 -0.8799 -2.7799  3.9212
   23POPC   H5S 3001   4.662   1.529   5.138  0.9324  0.3563  0.4168
   23POPC   C26 3002   4.533   1.402   5.004 -0.0688 -0.3640 -0.4051
   23POPC   H6R 3003   4.440   1.463   5.013  1.2413  1.5026  1.2918
   23POPC   H6S 3004   4.494   1.298   5.008 -0.4684 -0.1944  0.3877
   23POPC   C27 3005   4.606   1.418   4.872  0.3420  0.0066  1.3339
   23POPC   H7R 3006   4.537   1.394   4.789 -3.3434  0.6526  3.9599
   23POPC   H7S 3007   4.691   1.346   4.875 -0.8165 -1.4028  1.6593
   23POPC   C28 3008   4.663   1.552   4.857 -0.0327 -0.8557 -0.2624
   23POPC   H8R 3009   4.742   1.572   4.933  0.5268 -2.3097 -0.4242
   23POPC   H8S 3010   4.579   1.624   4.857 -1.4906 -2.4838  0.1686
   23POPC   C29 3011   4.739   1.562   4.726  0.1125  0.0998 -0.0403
   23POPC   H91 3012   4.744   1.471   4.665 -2.2690  2.0257 -3.4327
   23POPC  C210 3013   4.807   1.671   4.688 -0.1926 -0.0105  0.3644
   23POPC  H101 3014   4.857   1.667   4.590 -0.0489 -1.2414  0.4740
   23POPC  C211 3015   4.825   1.805   4.759 -0.8384  0.2493 -0.1223
   23POPC  H11R 3016   4.761   1.824   4.848 -0.1810  0.3721  0.3353
   23POPC  H11S 3017   4.807   1.890   4.690  0.2179  1.1213  0.6250
   23POPC  C212 3018   4.970   1.812   4.805 -0.4609 -0.3267  0.5476
   23POPC  H12R 3019   5.039   1.812   4.718 -0.3473 -2.7452  0.5772
   23POPC  H12S 3020   5.008   1.730   4.869  2.4456  1.0995  0.8230
   23POPC  C213 3021   5.004   1.940   4.888 -0.5247  0.1974  0.3865
   23POPC  H13R 3022   5.107   1.951   4.928 -0.2666  1.2301 -0.5062
   23POPC  H13S 3023   4.935   1.941   4.974 -3.2324 -0.6403 -1.6449
   23POPC  C214 3024   4.967   2.072   4.810 -0.2684 -0.7450 -0.5115
   23POPC  H14R 3025   4.976   2.155   4.883 -1.1160 -0.0377 -1.1789
   23POPC  H14S 3026   4.858   2.076   4.785 -0.9585  0.9319  2.3359
   23POPC  C215 3027   5.059   2.099   4.691 -0.8772  0.4003  0.3728
   23POPC  H15R 3028   5.049   2.028   4.607  0.7063  2.3415 -1.5851
   23POPC  H15S 3029   5.165   2.104   4.723 -0.4341  2.4587 -1.2166
   23POPC  C216 3030   5.035   2.238   4.629 -0.2651 -0.5095 -0.2838
   23POPC  H16R 3031   5.041   2.315   4.709  1.6532 -2.0794  1.1744
   23POPC  H16S 3032   4.933   2.242   4.585  0.3147 -1.8587 -1.8528
   23POPC  C217 3033   5.143   2.280   4.524  0.8832 -0.3544  0.4929
   23POPC  H17R 3034   5.101   2.376   4.490 -0.4368 -1.2821 -0.5999
   23POPC  H17S 3035   5.153   2.207   4.441 -1.2254 -2.0249  1.6020
   23POPC  C218 3036   5.277   2.309   4.585  0.3193 -0.0086  0.0794
   23POPC  H18R 3037   5.320   2.209   4.608 -0.7901 -0.7789 -1.0987
   23POPC  H18S 3038   5.264   2.363   4.681 -0.6176  1.1777 -0.6777
   23POPC  H18T 3039   5.351   2.368   4.526 -0.5825  2.3017  1.1146
   23POPC   C33 3040   5.039   1.836   5.257 -0.6686 -0.8553 -0.0063
   23POPC   H3X 3041   5.120   1.871   5.189 -2.2157  0.0575 -1.4539
   23POPC   H3Y 3042   4.956   1.909   5.245  0.5262  0.6157  0.3517
   23POPC   C34 3043   5.010   1.700   5.206 -0.2547  0.2627  0.5080
   23POPC   H4X 3044   4.978   1.711   5.100  3.2185  0.9809 -0.6075
   23POPC   H4Y 3045   4.928   1.655   5.265  0.8243 -3.1006 -0.3640
   23POPC   C35 3046   5.124   1.596   5.199  0.0600  0.0367 -0.6477
   23POPC   H5X 3047   5.136   1.566   5.306  2.4701  1.1185 -0.5524
   23POPC   H5Y 3048   5.221   1.636   5.163  0.6537  0.3995  1.2174
   23POPC   C36 3049   5.089   1.463   5.126 -0.0104  0.0163 -0.0610
   23POPC   H6X 3050   4.989   1.434   5.164  1.2005 -0.7561  2.8638
   23POPC   H6Y 3051   5.165   1.385   5.146  2.4672  2.3073  0.0490
   23POPC   C37 3052   5.061   1.485   4.978 -0.3451 -0.0666  0.5138
   23POPC   H7X 3053   5.130   1.555   4.927 -0.3478 -0.0821  0.4880
   23POPC   H7Y 3054   4.958   1.525   4.969 -0.4098 -0.5012 -0.8862
   23POPC   C38 3055   5.078   1.351   4.903  0.0973  0.2420 -0.3269
   23POPC   H8X 3056   5.007   1.282   4.953  1.5351 -1.0967 -0.0546
   23POPC   H8Y 3057   5.180   1.307   4.912  0.8477  1.9927  0.2844
   23POPC   C39 3058   5.048   1.362   4.753  0.2396  0.0046 -0.2340
   23POPC   H9X 3059   5.089   1.447   4.694  1.0919 -0.1599  0.1159
   23POPC   H9Y 3060   4.937   1.358   4.763  0.2239  0.4343 -0.2099
   23POPC  C310 3061   5.096   1.237   4.675  0.1378  0.1300  0.0374
   23POPC  H10X 3062   5.136   1.163   4.747  0.3293  0.7797  0.6081
   23POPC  H10Y 3063   5.171   1.278   4.604 -1.1588  3.7717  0.5502
   23POPC  C311 3064   4.979   1.170   4.604  0.0380  0.3518  0.3956
   23POPC  H11X 3065   5.014   1.107   4.519  0.3018  1.1098 -0.0732
   23POPC  H11Y 3066   4.915   1.251   4.562  1.3709  1.4082  0.3406
   23POPC  C312 3067   4.902   1.089   4.716  0.1813  0.2552  0.4092
   23POPC  H12X 3068   4.883   1.161   4.798  2.3625 -0.8582  2.0003
   23POPC  H12Y 3069   4.980   1.019   4.752  1.0494  1.3576  0.7251
   23POPC  C313 3070   4.770   1.015   4.662 -0.3774 -0.3796 -0.3854
   23POPC  H13X 3071   4.813   0.935   4.598  1.8269 -0.0180  0.5445
   23POPC  H13Y 3072   4.706   1.088   4.607 -2.3938 -1.4824  0.3997
   23POPC  C314 3073   4.672   0.945   4.762 -0.3438  0.0612 -0.6819
   23POPC  H14X 3074   4.731   0.857   4.793 -1.2506  0.2986  1.9869
   23POPC  H14Y 3075   4.577   0.909   4.718 -1.7568  0.0384  2.1862
   23POPC  C315 3076   4.630   1.032   4.878 -0.4385  0.0373 -0.2960
   23POPC  H15X 3077   4.598   1.125   4.827  1.1620  0.5338 -0.4528
   23POPC  H15Y 3078   4.723   1.040   4.939  0.3398 -0.3644 -1.3944
   23POPC  C316 3079   4.521   0.972   4.958 -0.2109 -0.0405 -0.1557
   23POPC  H16X 3080   4.543   0.867   4.987 -3.3838 -0.0407  2.9829
   23POPC  H16Y 3081   4.430   0.982   4.895  0.9461  0.9401 -1.7382
   23POPC  H16Z 3082   4.514   1.022   5.057 -0.1200  0.0707 -0.2057
   24POPC     N 3083   1.577   1.736   6.477 -0.1792  0.3143 -0.4052
   24POPC   C12 3084   1.464   1.642   6.447  0.4089 -0.1185 -0.1928
   24POPC  H12A 3085   1.406   1.612   6.533  3.1152 -0.7364  1.5196
   24POPC  H12B 3086   1.506   1.547   6.418 -1.0016 -1.1931  1.1023
   24POPC   C13 3087   1.652   1.747   6.355  0.1386  0.6738  0.6179
   24POPC  H13A 3088   1.610   1.816   6.283 -0.3838  1.1595  1.3841
   24POPC  H13B 3089   1.750   1.791   6.366  0.7892 -0.5531 -0.0230
   24POPC  H13C 3090   1.678   1.650   6.314 -3.2494  1.4439 -4.2265
   24POPC   C14 3091   1.534   1.872   6.519  0.3342 -0.5940  0.0903
   24POPC  H14A 3092   1.483   1.915   6.434  0.0675 -2.3991 -0.7003
   24POPC  H14B 3093   1.481   1.864   6.612  0.3072 -0.9099  0.0495
   24POPC  H14C 3094   1.624   1.930   6.535  0.1873  0.1918 -1.6449
   24POPC   C15 3095   1.645   1.680   6.600 -0.7244 -0.3712  1.3179
   24POPC  H15A 3096   1.576   1.644   6.674 -2.4286  1.7890  0.8968
   24POPC  H15B 3097   1.707   1.754   6.648 -2.1718  0.9321  1.2706
   24POPC  H15C 3098   1.701   1.595   6.564 -1.1905  0.4911 -1.7454
   24POPC   C11 3099   1.367   1.672   6.334 -0.2205 -1.0729 -0.4117
   24POPC  H11A 3100   1.290   1.597   6.363  0.0915 -0.2438  3.0617
   24POPC  H11B 3101   1.416   1.639   6.240  1.2083  1.2433 -0.5504
   24POPC     P 3102   1.316   1.912   6.225  0.1459 -0.2242  0.3888
   24POPC   O13 3103   1.453   1.961   6.243  0.0032  0.5028 -0.5478
   24POPC   O14 3104   1.200   2.009   6.227  0.3225 -0.0760  0.4125
   24POPC   O12 3105   1.294   1.800   6.330 -0.0823 -0.0826  0.4391
   24POPC   O11 3106   1.309   1.851   6.082  0.0941 -0.2774 -0.4179
   24POPC    C1 3107   1.354   1.923   5.964  0.4200  0.0295 -0.2578
   24POPC    HA 3108   1.309   2.024   5.964  2.7258  1.2277  2.8857
   24POPC    HB 3109   1.322   1.868   5.873  2.7230 -2.1190  0.1189
   24POPC    C2 3110   1.509   1.927   5.950 -0.3111 -0.4813 -0.3497
   24POPC    HS 3111   1.548   1.988   6.033  0.8544 -0.3171 -0.9990
   24POPC   O21 3112   1.541   1.987   5.825  0.0673  0.3053 -0.6697
   24POPC   C21 3113   1.639   2.068   5.819 -0.4699 -0.0564  1.3952
   24POPC   O22 3114   1.710   2.115   5.903 -0.0156  0.2458 -0.3719
   24POPC   C22 3115   1.650   2.104   5.665 -0.1026 -0.4355 -0.3476
   24POPC   H2R 3116   1.752   2.145   5.646  0.1333 -0.5441  0.6022
   24POPC   H2S 3117   1.579   2.189   5.657  0.6993  0.2731 -0.1679
   24POPC    C3 3118   1.575   1.784   5.979  0.3655 -0.5091  0.2098
   24POPC    HX 3119   1.507   1.703   5.946  1.5777 -0.9529 -1.3630
   24POPC    HY 3120   1.572   1.772   6.090  2.0786 -0.2672  0.3119
   24POPC   O31 3121   1.706   1.774   5.928  0.3500  0.1991 -0.0722
   24POPC   C31 3122   1.772   1.657   5.937  0.5727 -1.0377  0.1638
   24POPC   O32 3123   1.723   1.552   5.979  0.0509  0.0746 -0.1627
   24POPC   C32 3124   1.915   1.669   5.897 -0.0679  0.3493 -0.8000
   24POPC   H2X 3125   1.953   1.565   5.893 -0.7986  0.0979 -1.6993
   24POPC   H2Y 3126   1.973   1.721   5.976 -1.0698 -0.8140  0.7460
   24POPC   C23 3127   1.622   1.996   5.557  0.1409 -0.1285  0.7284
   24POPC   H3R 3128   1.522   1.958   5.586  0.0961  0.1669  0.9556
   24POPC   H3S 3129   1.686   1.907   5.571  0.6907  0.2641  0.7441
   24POPC   C24 3130   1.633   2.049   5.410 -0.5534  0.1190 -0.5911
   24POPC   H4R 3131   1.628   1.958   5.346 -0.7909 -1.1544  1.1631
   24POPC   H4S 3132   1.733   2.097   5.404  0.3786 -1.0262  3.0240
   24POPC   C25 3133   1.533   2.167   5.378  0.2799  0.6782  0.7345
   24POPC   H5R 3134   1.567   2.268   5.412 -0.1723  1.0716  0.0345
   24POPC   H5S 3135   1.433   2.157   5.424 -1.3706  4.5266 -1.5066
   24POPC   C26 3136   1.516   2.182   5.228 -0.5455  0.1612  0.2553
   24POPC   H6R 3137   1.616   2.181   5.180 -1.1767  0.4101 -1.0984
   24POPC   H6S 3138   1.466   2.273   5.187  0.6547 -0.0684 -1.8315
   24POPC   C27 3139   1.439   2.071   5.151  0.5230  0.7108  0.0992
   24POPC   H7R 3140   1.330   2.088   5.165  0.7954  2.4114  0.4408
   24POPC   H7S 3141   1.455   1.973   5.201 -1.2636 -0.0040 -0.6406
   24POPC   C28 3142   1.474   2.071   5.007  0.0290  0.3709  0.0418
   24POPC   H8R 3143   1.435   1.980   4.956  0.9293 -0.0515  0.1024
   24POPC   H8S 3144   1.584   2.063   4.996 -0.1698 -1.3115 -1.1223
   24POPC   C29 3145   1.425   2.192   4.937 -0.1673  0.2990  0.2091
   24POPC   H91 3146   1.415   2.287   4.991 -2.0038 -0.5029  1.3729
   24POPC  C210 3147   1.374   2.190   4.811 -0.2595 -0.1924 -0.4211
   24POPC  H101 3148   1.329   2.281   4.769 -1.3503 -0.3987  0.2644
   24POPC  C211 3149   1.368   2.073   4.715  0.2518  1.2184 -0.4548
   24POPC  H11R 3150   1.264   2.046   4.688  0.0780  1.4709 -0.0460
   24POPC  H11S 3151   1.426   1.993   4.766  0.5779  1.9004  0.2693
   24POPC  C212 3152   1.425   2.121   4.583  0.0752  0.4978 -0.7258
   24POPC  H12R 3153   1.534   2.136   4.599  0.8362 -1.3944 -3.3415
   24POPC  H12S 3154   1.383   2.219   4.551 -2.4737 -1.1029 -2.6816
   24POPC  C213 3155   1.405   2.030   4.466  0.2703  0.6112  0.8280
   24POPC  H13R 3156   1.332   1.954   4.500  1.8372 -0.9824  0.7725
   24POPC  H13S 3157   1.492   1.960   4.462  0.1604  0.5219 -0.5625
   24POPC  C214 3158   1.356   2.082   4.334  0.0498 -0.5240 -0.5340
   24POPC  H14R 3159   1.421   2.157   4.285  0.3323 -0.4057  0.0246
   24POPC  H14S 3160   1.258   2.133   4.349 -0.2392 -1.5905  1.5972
   24POPC  C215 3161   1.341   1.971   4.224 -0.0018 -0.3082  0.4186
   24POPC  H15R 3162   1.443   1.927   4.217 -0.5817 -1.6079 -0.3940
   24POPC  H15S 3163   1.316   2.024   4.129  1.1236 -0.4439  0.0307
   24POPC  C216 3164   1.234   1.872   4.251 -0.2392  0.9540 -0.9414
   24POPC  H16R 3165   1.136   1.918   4.276 -0.3408  0.7759 -1.0189
   24POPC  H16S 3166   1.267   1.810   4.338 -2.6929  3.7273  2.2644
   24POPC  C217 3167   1.221   1.768   4.141  0.3328  0.3922  0.3480
   24POPC  H17R 3168   1.315   1.708   4.138 -1.2863 -2.2568 -0.6618
   24POPC  H17S 3169   1.212   1.817   4.042  1.6477  1.3937  0.7044
   24POPC  C218 3170   1.101   1.674   4.173  0.2581 -0.2724 -0.2087
   24POPC  H18R 3171   1.078   1.609   4.086 -0.9552  1.8710 -1.6135
   24POPC  H18S 3172   1.011   1.731   4.206 -0.4034 -0.1844 -2.0184
   24POPC  H18T 3173   1.137   1.600   4.247 -0.4499 -0.7569 -0.3367
   24POPC   C33 3174   1.927   1.738   5.760  0.1415 -0.0108 -0.2276
   24POPC   H3X 3175   1.900   1.845   5.773  1.6933  0.3391  0.2327
   24POPC   H3Y 3176   1.852   1.703   5.685 -0.7747 -0.3039  0.7910
   24POPC   C34 3177   2.064   1.726   5.692 -0.7305  0.1841 -0.3417
   24POPC   H4X 3178   2.108   1.623   5.689  1.0477  0.9183 -0.7161
   24POPC   H4Y 3179   2.130   1.789   5.754  0.1450 -1.9319  1.0069
   24POPC   C35 3180   2.050   1.789   5.555 -0.5362 -0.0218  0.3018
   24POPC   H5X 3181   1.970   1.730   5.505 -1.0540 -0.5370  1.6980
   24POPC   H5Y 3182   2.138   1.772   5.488 -1.4158  0.3225 -0.9679
   24POPC   C36 3183   2.021   1.942   5.554 -0.2703 -0.7853  0.2668
   24POPC   H6X 3184   2.104   1.997   5.604 -2.3893  0.8808  2.1719
   24POPC   H6Y 3185   1.933   1.965   5.618  0.1682  1.3967  0.1923
   24POPC   C37 3186   2.013   2.009   5.416 -0.3570  0.0573 -0.1101
   24POPC   H7X 3187   1.917   1.978   5.370 -0.3530 -1.4055  0.7752
   24POPC   H7Y 3188   2.101   1.979   5.355 -0.1964  1.3558 -0.5499
   24POPC   C38 3189   2.017   2.160   5.427  0.3111  0.9589 -0.7643
   24POPC   H8X 3190   2.114   2.201   5.462  2.3121 -0.2650 -4.3665
   24POPC   H8Y 3191   1.937   2.185   5.500  0.0484  0.8934 -1.0241
   24POPC   C39 3192   1.973   2.220   5.296 -0.0916  0.0727 -0.0039
   24POPC   H9X 3193   1.896   2.158   5.244  0.2497 -1.1003  0.8618
   24POPC   H9Y 3194   2.058   2.212   5.225  0.5646 -1.9035  0.9586
   24POPC  C310 3195   1.933   2.369   5.311  1.0981  0.5489 -0.4984
   24POPC  H10X 3196   2.024   2.430   5.327 -1.6787  4.1251  3.7550
   24POPC  H10Y 3197   1.872   2.371   5.404  1.1875  1.4702 -0.4535
   24POPC  C311 3198   1.841   2.433   5.198  0.2124 -0.1034 -0.2589
   24POPC  H11X 3199   1.813   2.533   5.236  3.8729  0.8179  0.4479
   24POPC  H11Y 3200   1.756   2.362   5.192  0.8477 -0.9519  0.4898
   24POPC  C312 3201   1.913   2.449   5.063 -0.1083 -0.3077 -0.5951
   24POPC  H12X 3202   1.924   2.347   5.021 -2.3048 -1.5526  1.5435
   24POPC  H12Y 3203   2.014   2.491   5.082 -0.1689 -0.5277  0.2448
   24POPC  C313 3204   1.845   2.548   4.963 -0.5442 -0.5828  0.0790
   24POPC  H13X 3205   1.744   2.516   4.931  0.0172  0.2514 -2.8254
   24POPC  H13Y 3206   1.906   2.553   4.870  1.0140  1.0751  1.1338
   24POPC  C314 3207   1.837   2.689   5.016 -0.0673 -0.1845  0.4796
   24POPC  H14X 3208   1.937   2.723   5.051 -1.1992  2.7857  1.1337
   24POPC  H14Y 3209   1.771   2.693   5.106 -1.7963  3.1550 -0.7534
   24POPC  C315 3210   1.791   2.796   4.916  0.1701 -0.2612  0.3870
   24POPC  H15X 3211   1.775   2.889   4.975 -2.2374  1.0388 -2.0359
   24POPC  H15Y 3212   1.705   2.761   4.855  0.9105 -0.6791 -0.4400
   24POPC  C316 3213   1.899   2.829   4.809 -0.3659  0.4434 -0.0258
   24POPC  H16X 3214   1.971   2.894   4.864  0.4234 -0.9895  0.6791
   24POPC  H16Y 3215   1.874   2.883   4.715 -1.8146 -1.5424 -0.8503
   24POPC  H16Z 3216   1.955   2.734   4.795 -0.4320  0.3445  0.3698
   25POPC     N 3217   1.129   5.106   6.198 -0.4437  0.9447 -0.7065
   25POPC   C12 3218   1.149   5.093   6.047 -0.0408 -0.1332 -0.5908
   25POPC  H12A 3219   1.217   5.168   6.009 -0.9964  0.7242 -0.6494
   25POPC  H12B 3220   1.054   5.115   6.000 -1.7209 -0.0505  2.5684
   25POPC   C13 3221   1.103   5.246   6.239  0.4285 -0.5337 -0.1128
   25POPC  H13A 3222   1.187   5.310   6.217 -0.3441  1.3519  1.9228
   25POPC  H13B 3223   1.009   5.274   6.195 -0.9587 -1.4026  2.0923
   25POPC  H13C 3224   1.081   5.262   6.344 -0.0113  0.6675 -0.3679
   25POPC   C14 3225   1.021   5.015   6.248  0.1858  0.2590  0.2879
   25POPC  H14A 3226   1.033   4.912   6.219 -1.4640  0.0176  0.3816
   25POPC  H14B 3227   1.017   5.016   6.356 -1.3461 -0.4289  0.2601
   25POPC  H14C 3228   0.922   5.038   6.213  0.6636 -0.2807 -1.5011
   25POPC   C15 3229   1.250   5.059   6.268 -0.0962 -0.3255 -0.3251
   25POPC  H15A 3230   1.335   5.103   6.220 -0.7474  0.2741 -0.9542
   25POPC  H15B 3231   1.263   4.953   6.255  3.7347  0.1807 -1.6617
   25POPC  H15C 3232   1.247   5.080   6.374 -1.8461 -1.7940 -0.0197
   25POPC   C11 3233   1.206   4.959   5.990  0.3495 -1.0539 -0.3101
   25POPC  H11A 3234   1.303   4.937   6.040 -0.0596  0.1605  1.0908
   25POPC  H11B 3235   1.226   4.986   5.884 -1.3283 -0.0933 -0.4162
   25POPC     P 3236   0.989   4.840   5.920 -0.0999  0.1368 -0.0393
   25POPC   O13 3237   0.918   4.972   5.927 -0.0493 -0.0856  0.0297
   25POPC   O14 3238   0.915   4.721   5.965 -0.6472  0.0808 -0.2245
   25POPC   O12 3239   1.117   4.846   6.009  0.5801 -0.0894  0.1381
   25POPC   O11 3240   1.054   4.815   5.779  0.0484  0.3130 -0.4129
   25POPC    C1 3241   1.058   4.684   5.716 -0.7862  0.1729  0.4611
   25POPC    HA 3242   1.063   4.703   5.606  0.7542  0.3197  0.5391
   25POPC    HB 3243   0.979   4.608   5.734  0.6899 -1.5162  0.0611
   25POPC    C2 3244   1.192   4.607   5.747  0.1664  0.0383 -0.2790
   25POPC    HS 3245   1.192   4.612   5.857 -2.2488  0.4235 -0.2423
   25POPC   O21 3246   1.306   4.676   5.684 -0.3491 -0.1870  0.0742
   25POPC   C21 3247   1.428   4.621   5.719  0.2058 -1.0190 -0.3260
   25POPC   O22 3248   1.446   4.551   5.814 -0.1726 -0.0333 -0.4473
   25POPC   C22 3249   1.537   4.651   5.617  0.3455 -0.0074  0.6993
   25POPC   H2R 3250   1.632   4.600   5.641  1.4441  1.2493 -0.7233
   25POPC   H2S 3251   1.545   4.762   5.627 -1.0784 -0.0028  2.1148
   25POPC    C3 3252   1.171   4.457   5.702  0.0905 -0.0929 -0.1265
   25POPC    HX 3253   1.068   4.427   5.733 -0.0401 -0.2303 -0.6798
   25POPC    HY 3254   1.244   4.409   5.770 -0.5295  3.8107  3.7737
   25POPC   O31 3255   1.194   4.424   5.563 -0.1683 -0.2077  0.0364
   25POPC   C31 3256   1.090   4.390   5.487 -0.3882  0.1351 -0.1131
   25POPC   O32 3257   0.976   4.361   5.531  0.2543  0.7761 -0.1287
   25POPC   C32 3258   1.125   4.403   5.342 -0.2963  0.7306  0.1491
   25POPC   H2X 3259   1.139   4.510   5.315 -2.9671  0.4957 -2.6630
   25POPC   H2Y 3260   1.043   4.365   5.278 -1.0372 -2.0015  2.4938
   25POPC   C23 3261   1.481   4.622   5.471 -0.0024  0.3542  0.5450
   25POPC   H3R 3262   1.382   4.673   5.461 -0.3032  0.2560  2.5779
   25POPC   H3S 3263   1.459   4.513   5.471 -2.7678  0.8152 -0.4932
   25POPC   C24 3264   1.562   4.638   5.342  0.1857  0.2302 -0.4638
   25POPC   H4R 3265   1.538   4.562   5.265 -0.1208  1.4968 -1.6654
   25POPC   H4S 3266   1.672   4.627   5.349  0.3169  1.8381  0.3968
   25POPC   C25 3267   1.530   4.764   5.273  0.3627 -0.7643  0.2266
   25POPC   H5R 3268   1.536   4.859   5.331 -1.3193 -1.0388  0.9143
   25POPC   H5S 3269   1.421   4.752   5.255  0.3535 -0.0638 -0.1891
   25POPC   C26 3270   1.598   4.773   5.141 -0.2702  0.0432  0.5641
   25POPC   H6R 3271   1.616   4.670   5.103 -0.7534  0.5791 -1.1786
   25POPC   H6S 3272   1.699   4.814   5.163  0.5238 -1.3495 -0.3506
   25POPC   C27 3273   1.535   4.871   5.038 -0.0897 -0.3757 -0.5911
   25POPC   H7R 3274   1.517   4.961   5.101  2.4068 -0.7989  0.8637
   25POPC   H7S 3275   1.431   4.840   5.014 -0.0615 -1.0245  0.0845
   25POPC   C28 3276   1.634   4.900   4.928  0.0308 -0.8609  0.4848
   25POPC   H8R 3277   1.681   4.809   4.885  1.9022 -0.2832  1.2071
   25POPC   H8S 3278   1.715   4.963   4.971  1.6424 -1.6744 -1.1844
   25POPC   C29 3279   1.558   4.977   4.822 -0.1605  0.0494 -0.0270
   25POPC   H91 3280   1.559   5.087   4.832  0.5559  0.2572 -2.0648
   25POPC  C210 3281   1.481   4.921   4.729  0.0080  0.0034 -0.2198
   25POPC  H101 3282   1.443   4.981   4.646 -0.0281  0.0478 -0.1717
   25POPC  C211 3283   1.464   4.771   4.706  0.0037 -0.1304 -0.3890
   25POPC  H11R 3284   1.408   4.717   4.785 -2.1285 -0.2290 -1.8960
   25POPC  H11S 3285   1.563   4.722   4.691  1.1208  0.8792  2.8051
   25POPC  C212 3286   1.392   4.744   4.574 -0.6004  0.9587  0.1329
   25POPC  H12R 3287   1.289   4.783   4.568 -0.7293  0.4275 -2.0628
   25POPC  H12S 3288   1.382   4.636   4.549  0.2663  0.3544  2.1640
   25POPC  C213 3289   1.462   4.796   4.449 -0.1201 -0.0319 -0.0113
   25POPC  H13R 3290   1.566   4.757   4.447 -0.7232 -1.7326 -0.0013
   25POPC  H13S 3291   1.463   4.906   4.443 -1.9103  0.0823  1.0772
   25POPC  C214 3292   1.395   4.745   4.317  0.6182  0.0439 -0.7924
   25POPC  H14R 3293   1.292   4.785   4.329  0.6826  0.1459 -0.5778
   25POPC  H14S 3294   1.393   4.634   4.318 -2.2828  0.0087  1.7316
   25POPC  C215 3295   1.450   4.803   4.183  0.1293  0.3715 -0.0287
   25POPC  H15R 3296   1.452   4.914   4.190 -1.6278  0.4922 -0.8232
   25POPC  H15S 3297   1.381   4.777   4.100 -0.1568  1.7609 -0.2544
   25POPC  C216 3298   1.590   4.759   4.147  0.4447  0.6635 -0.7364
   25POPC  H16R 3299   1.613   4.653   4.174 -0.1019  1.1065  1.7087
   25POPC  H16S 3300   1.666   4.817   4.203  0.9384 -0.5146 -0.1397
   25POPC  C217 3301   1.635   4.765   3.995  0.1380  0.4247 -0.7271
   25POPC  H17R 3302   1.659   4.867   3.960  0.2966  1.0183  1.0214
   25POPC  H17S 3303   1.555   4.717   3.935  1.4409 -0.8185 -1.5454
   25POPC  C218 3304   1.761   4.685   3.973 -0.3920  1.0212 -0.5538
   25POPC  H18R 3305   1.745   4.576   3.989 -0.2122  0.5342 -3.1811
   25POPC  H18S 3306   1.850   4.725   4.026  0.0241 -2.5727  1.8220
   25POPC  H18T 3307   1.784   4.689   3.864 -0.5270 -1.2789 -0.7210
   25POPC   C33 3308   1.256   4.316   5.305  0.2031 -0.0052 -0.3708
   25POPC   H3X 3309   1.246   4.207   5.319  0.0686 -0.3881 -2.9077
   25POPC   H3Y 3310   1.338   4.344   5.374 -0.4102 -0.7724  0.6972
   25POPC   C34 3311   1.304   4.332   5.165  0.8016  0.4742  0.0139
   25POPC   H4X 3312   1.230   4.280   5.101 -0.6691  1.7011  0.6306
   25POPC   H4Y 3313   1.403   4.286   5.145  0.1397 -0.2233 -1.9533
   25POPC   C35 3314   1.294   4.475   5.110 -0.8440 -0.7933 -0.4589
   25POPC   H5X 3315   1.338   4.528   5.198 -0.1807 -2.1861  0.0746
   25POPC   H5Y 3316   1.193   4.513   5.081 -0.7291 -0.3362 -0.2758
   25POPC   C36 3317   1.392   4.509   5.001 -0.2922 -0.1385 -0.2872
   25POPC   H6X 3318   1.495   4.480   5.031 -0.2442  0.3092  0.0006
   25POPC   H6Y 3319   1.390   4.619   4.983  0.8547  0.0875  0.7603
   25POPC   C37 3320   1.354   4.437   4.867  0.0267  0.2569 -0.3153
   25POPC   H7X 3321   1.349   4.332   4.903 -0.7235  1.1969  2.5486
   25POPC   H7Y 3322   1.435   4.459   4.794  1.1245  0.9736  1.0625
   25POPC   C38 3323   1.211   4.481   4.809 -0.7544 -0.4871 -0.1079
   25POPC   H8X 3324   1.214   4.593   4.810 -0.3604 -0.4309  2.9689
   25POPC   H8Y 3325   1.129   4.452   4.878  0.7360 -0.4638  1.7515
   25POPC   C39 3326   1.178   4.411   4.677 -0.2486  0.2450  1.1232
   25POPC   H9X 3327   1.159   4.306   4.708  1.5309  0.3602  2.7495
   25POPC   H9Y 3328   1.262   4.408   4.605 -2.1141 -1.3350 -1.1576
   25POPC  C310 3329   1.055   4.463   4.604 -0.4228 -0.2807 -0.2845
   25POPC  H10X 3330   1.079   4.571   4.587  0.7836 -0.1477  1.9366
   25POPC  H10Y 3331   0.975   4.444   4.678  0.9051  2.6492  2.1084
   25POPC  C311 3332   1.032   4.400   4.458 -0.5450  0.0857 -0.9094
   25POPC  H11X 3333   1.014   4.290   4.454  0.6504 -0.2208  0.9788
   25POPC  H11Y 3334   1.113   4.430   4.388  1.7459 -2.7428  0.3042
   25POPC  C312 3335   0.905   4.462   4.403  0.0185  0.3767  0.2758
   25POPC  H12X 3336   0.922   4.567   4.369 -0.6555 -0.2846 -2.2768
   25POPC  H12Y 3337   0.819   4.452   4.473  1.3418 -2.5926  1.6023
   25POPC  C313 3338   0.863   4.384   4.277 -0.7679  0.1738  0.0070
   25POPC  H13X 3339   0.770   4.428   4.235 -1.3986  0.7124  1.8391
   25POPC  H13Y 3340   0.852   4.274   4.291  0.9771 -0.0082  0.0745
   25POPC  C314 3341   0.975   4.388   4.171  1.2485 -0.9780  0.8058
   25POPC  H14X 3342   1.051   4.314   4.206 -0.6093 -3.0280  0.6924
   25POPC  H14Y 3343   1.010   4.494   4.166 -0.4681 -0.3537  1.2214
   25POPC  C315 3344   0.934   4.334   4.034 -0.8197 -0.1153  0.6273
   25POPC  H15X 3345   0.845   4.390   3.997 -2.6595 -2.7286  0.8053
   25POPC  H15Y 3346   0.897   4.229   4.046 -1.7019  0.0328 -0.5672
   25POPC  C316 3347   1.053   4.331   3.935  0.2639 -0.2986  0.1784
   25POPC  H16X 3348   1.048   4.433   3.890 -0.8458  0.1314  1.1985
   25POPC  H16Y 3349   1.056   4.256   3.853 -1.3871  0.3068 -0.4900
   25POPC  H16Z 3350   1.144   4.307   3.993  0.2046 -0.4292  0.2180
   26POPC     N 3351   4.089   0.871   6.417  0.6536 -0.2943  0.3737
   26POPC   C12 3352   3.992   0.853   6.302 -0.5100  0.0736  0.1522
   26POPC  H12A 3353   3.924   0.937   6.302 -1.1439 -0.3957  1.9101
   26POPC  H12B 3354   3.929   0.768   6.327  0.4486 -0.9910 -0.9281
   26POPC   C13 3355   3.995   0.900   6.535 -0.1338 -0.1488 -0.6116
   26POPC  H13A 3356   4.047   0.881   6.628  1.8611  3.5189 -0.8011
   26POPC  H13B 3357   3.965   1.004   6.540 -2.4044 -0.7250 -1.0546
   26POPC  H13C 3358   3.908   0.835   6.533 -0.6199  0.4232  0.6678
   26POPC   C14 3359   4.165   0.747   6.441 -0.8022  0.5909  0.8511
   26POPC  H14A 3360   4.105   0.657   6.438 -0.0698  0.1050 -1.3603
   26POPC  H14B 3361   4.239   0.729   6.365 -1.4046 -0.1261  0.4228
   26POPC  H14C 3362   4.224   0.752   6.532  4.4903 -0.9747 -2.0861
   26POPC   C15 3363   4.185   0.983   6.399  0.5310  0.1139 -0.4395
   26POPC  H15A 3364   4.138   1.076   6.373 -1.3408 -0.4057  0.8987
   26POPC  H15B 3365   4.252   0.968   6.315 -0.6085  0.1373 -1.3771
   26POPC  H15C 3366   4.240   0.990   6.491  0.6415  1.1304 -0.5767
   26POPC   C11 3367   4.046   0.817   6.162 -0.0447  0.3625  0.1694
   26POPC  H11A 3368   3.963   0.833   6.091  0.3531 -0.2198 -0.4318
   26POPC  H11B 3369   4.066   0.708   6.167 -3.0197 -0.3125 -0.8310
   26POPC     P 3370   4.297   0.843   6.069  0.0861  0.1375  0.0278
   26POPC   O13 3371   4.362   0.766   6.178  0.2227  0.1893  0.1945
   26POPC   O14 3372   4.367   0.955   6.005 -0.1409 -0.2723 -0.0727
   26POPC   O12 3373   4.160   0.900   6.126 -0.1949 -0.3519  0.0807
   26POPC   O11 3374   4.267   0.728   5.958 -0.2336  0.0365  0.1942
   26POPC    C1 3375   4.168   0.749   5.859  0.6940  0.0784  0.2607
   26POPC    HA 3376   4.142   0.856   5.865  1.7080  0.3687 -0.1634
   26POPC    HB 3377   4.075   0.691   5.871  1.5625 -1.3722  0.2427
   26POPC    C2 3378   4.224   0.715   5.722 -0.1950  0.3714 -0.4069
   26POPC    HS 3379   4.323   0.766   5.720 -0.4482  0.8594 -1.6624
   26POPC   O21 3380   4.120   0.760   5.633 -0.7824 -0.0471 -0.4315
   26POPC   C21 3381   4.174   0.818   5.521  0.4532  0.1133 -0.1454
   26POPC   O22 3382   4.290   0.837   5.497 -0.3094 -0.0350 -0.2970
   26POPC   C22 3383   4.062   0.848   5.421 -0.1372  0.7722 -0.0466
   26POPC   H2R 3384   3.959   0.841   5.463 -0.0340  1.8839  0.4097
   26POPC   H2S 3385   4.062   0.768   5.343 -0.3169  0.9723 -0.2556
   26POPC    C3 3386   4.248   0.564   5.715  0.5619 -0.0451  0.4077
   26POPC    HX 3387   4.153   0.520   5.752  1.0946 -0.1705  1.6665
   26POPC    HY 3388   4.331   0.525   5.777  0.1936 -0.8678  0.3930
   26POPC   O31 3389   4.277   0.525   5.577 -0.2650 -0.5181  0.2912
   26POPC   C31 3390   4.193   0.432   5.531 -0.6385 -0.1636 -0.2472
   26POPC   O32 3391   4.120   0.359   5.596 -0.1107  0.1426  0.2665
   26POPC   C32 3392   4.205   0.424   5.381  0.1293 -0.3402  0.2678
   26POPC   H2X 3393   4.102   0.414   5.340  0.0549  0.2154  0.3088
   26POPC   H2Y 3394   4.264   0.334   5.353  1.5882 -0.3375  3.0198
   26POPC   C23 3395   4.071   0.989   5.346 -0.1200 -0.1408 -0.0585
   26POPC   H3R 3396   4.142   0.980   5.261 -0.2567  2.1060 -0.4580
   26POPC   H3S 3397   4.107   1.065   5.418 -1.4683  0.2051  0.2766
   26POPC   C24 3398   3.935   1.035   5.291  0.7129 -0.2688 -0.0884
   26POPC   H4R 3399   3.945   1.144   5.275  0.5597 -0.3553 -0.8110
   26POPC   H4S 3400   3.853   1.028   5.366 -0.7439 -0.1975 -1.6114
   26POPC   C25 3401   3.896   0.958   5.161 -0.0218 -0.2310 -0.1379
   26POPC   H5R 3402   3.888   0.850   5.182 -0.5839 -0.1458  0.1190
   26POPC   H5S 3403   3.973   0.986   5.086 -1.4919  0.1200 -1.5947
   26POPC   C26 3404   3.769   1.009   5.084 -0.3123  0.5160 -0.0398
   26POPC   H6R 3405   3.735   0.938   5.006 -0.9914 -0.4770  1.1223
   26POPC   H6S 3406   3.797   1.109   5.046  1.6558  0.6475  1.5490
   26POPC   C27 3407   3.649   1.037   5.179  0.0878 -0.0150  0.3593
   26POPC   H7R 3408   3.671   1.114   5.257 -0.3826 -1.3436  1.8597
   26POPC   H7S 3409   3.638   0.938   5.227 -1.0634  0.5315  1.2680
   26POPC   C28 3410   3.528   1.094   5.110 -0.1955  0.3158 -0.4081
   26POPC   H8R 3411   3.490   1.023   5.033  0.7472  0.6684 -1.2146
   26POPC   H8S 3412   3.561   1.184   5.054 -2.5897  0.8532 -1.0779
   26POPC   C29 3413   3.416   1.124   5.207  0.5120  0.2127 -0.2119
   26POPC   H91 3414   3.448   1.129   5.312 -0.2842 -0.0439  0.0493
   26POPC  C210 3415   3.292   1.146   5.179  0.0273  0.5570 -0.0880
   26POPC  H101 3416   3.231   1.179   5.264  1.2240 -0.9046  1.4079
   26POPC  C211 3417   3.236   1.118   5.036  0.1766 -0.2361  0.2080
   26POPC  H11R 3418   3.166   1.032   5.031  2.1889 -1.9124 -2.4350
   26POPC  H11S 3419   3.314   1.101   4.958 -1.4663  1.0871 -1.8324
   26POPC  C212 3420   3.154   1.245   4.981 -0.8583  0.3027 -0.5825
   26POPC  H12R 3421   3.218   1.336   4.979  0.0986 -0.3474 -2.6028
   26POPC  H12S 3422   3.064   1.267   5.043 -0.8053  1.8706 -1.0330
   26POPC  C213 3423   3.092   1.219   4.847 -0.4100  0.0845 -0.2536
   26POPC  H13R 3424   3.003   1.155   4.862 -0.3213  0.0556  0.1650
   26POPC  H13S 3425   3.157   1.158   4.781 -0.7008  0.2063 -0.6560
   26POPC  C214 3426   3.039   1.332   4.761  0.2128  0.4778  0.4136
   26POPC  H14R 3427   2.976   1.402   4.820 -0.0681  0.0663  0.6080
   26POPC  H14S 3428   2.983   1.289   4.675  2.6719 -2.1827 -0.0172
   26POPC  C215 3429   3.162   1.409   4.695  0.2846  0.5919  0.1576
   26POPC  H15R 3430   3.252   1.345   4.703  0.5085  0.9531  0.5626
   26POPC  H15S 3431   3.176   1.500   4.756 -1.6756  0.5693  0.7288
   26POPC  C216 3432   3.135   1.452   4.553  0.8891  0.3238 -0.7491
   26POPC  H16R 3433   3.057   1.531   4.545 -0.6029 -0.7144  2.1495
   26POPC  H16S 3434   3.097   1.363   4.499  0.0724 -0.1979  0.6587
   26POPC  C217 3435   3.259   1.498   4.489 -0.8893 -0.0643  0.0224
   26POPC  H17R 3436   3.335   1.417   4.497 -3.8180 -3.4335 -2.5207
   26POPC  H17S 3437   3.293   1.587   4.545  0.3054  0.1989 -1.0737
   26POPC  C218 3438   3.242   1.543   4.340 -0.2594  0.0441 -0.0796
   26POPC  H18R 3439   3.256   1.468   4.260 -1.7231  1.6210 -1.9136
   26POPC  H18S 3440   3.320   1.618   4.316 -0.9426 -0.4948 -5.0673
   26POPC  H18T 3441   3.141   1.586   4.320  0.0452  0.6924 -0.2425
   26POPC   C33 3442   4.275   0.540   5.308  0.8591  0.6501 -0.1718
   26POPC   H3X 3443   4.376   0.560   5.349  0.2661  2.9304  0.3372
   26POPC   H3Y 3444   4.214   0.632   5.325  2.4997  1.8114 -0.3568
   26POPC   C34 3445   4.285   0.505   5.158 -0.2026  0.3057 -0.7908
   26POPC   H4X 3446   4.185   0.485   5.113 -0.1940 -1.8683  0.0379
   26POPC   H4Y 3447   4.344   0.412   5.142  0.1168  0.7767 -2.4607
   26POPC   C35 3448   4.341   0.629   5.090  0.2570  0.3627  0.1891
   26POPC   H5X 3449   4.448   0.653   5.109  0.8104 -1.6291 -0.2033
   26POPC   H5Y 3450   4.280   0.718   5.118 -0.7682 -0.3688  0.3357
   26POPC   C36 3451   4.321   0.621   4.940  0.4045 -0.3424  0.8123
   26POPC   H6X 3452   4.353   0.520   4.907 -0.2072  0.0580 -1.1613
   26POPC   H6Y 3453   4.391   0.693   4.893  2.4816 -2.2769  0.7744
   26POPC   C37 3454   4.177   0.647   4.893  0.9542 -0.2513  0.0529
   26POPC   H7X 3455   4.122   0.698   4.975  0.4830  0.5944 -0.7694
   26POPC   H7Y 3456   4.114   0.555   4.889 -0.4890  0.6539  1.1426
   26POPC   C38 3457   4.168   0.712   4.760  0.5560  0.1509 -0.0626
   26POPC   H8X 3458   4.208   0.633   4.693 -2.0387 -1.5395  0.2158
   26POPC   H8Y 3459   4.232   0.803   4.759 -1.3042  1.5072 -0.8291
   26POPC   C39 3460   4.028   0.755   4.708 -0.3217  1.1348  0.5314
   26POPC   H9X 3461   3.952   0.675   4.715 -2.8433  3.1481 -1.7171
   26POPC   H9Y 3462   4.033   0.784   4.601  1.7649 -2.4724 -0.5121
   26POPC  C310 3463   3.982   0.869   4.795  0.7928  0.1061  0.8199
   26POPC  H10X 3464   4.074   0.926   4.818  1.9294 -1.0284 -0.6875
   26POPC  H10Y 3465   3.939   0.838   4.893  2.4082 -0.9496  1.2461
   26POPC  C311 3466   3.874   0.945   4.719 -1.7117 -0.1869 -0.0451
   26POPC  H11X 3467   3.908   0.977   4.618 -0.5480  0.4261  0.5138
   26POPC  H11Y 3468   3.855   1.040   4.774  3.4142  1.5674 -0.7231
   26POPC  C312 3469   3.744   0.865   4.695  0.5146  0.2323 -1.1674
   26POPC  H12X 3470   3.728   0.782   4.768 -0.3662  0.7623 -0.7410
   26POPC  H12Y 3471   3.766   0.816   4.598  1.7497 -1.4091 -0.1298
   26POPC  C313 3472   3.617   0.960   4.687  0.5478 -0.3907  0.5935
   26POPC  H13X 3473   3.625   1.031   4.602 -1.1129 -0.6161  0.2088
   26POPC  H13Y 3474   3.603   1.011   4.785  1.0581  3.2683 -1.0893
   26POPC  C314 3475   3.490   0.882   4.652 -0.4478  0.6054 -0.3371
   26POPC  H14X 3476   3.481   0.798   4.724  2.8729  0.7235  0.3694
   26POPC  H14Y 3477   3.509   0.845   4.549 -1.2821 -1.7220  0.2723
   26POPC  C315 3478   3.358   0.974   4.664 -0.1746  1.1953  1.2135
   26POPC  H15X 3479   3.364   1.011   4.769  0.7841 -1.7123  2.2915
   26POPC  H15Y 3480   3.270   0.907   4.658 -1.3027  2.6381  1.2368
   26POPC  C316 3481   3.360   1.082   4.554 -0.0827 -0.3507 -0.3095
   26POPC  H16X 3482   3.259   1.129   4.557  0.9031  2.2908 -3.2770
   26POPC  H16Y 3483   3.370   1.037   4.453  0.6593 -0.2740 -0.2730
   26POPC  H16Z 3484   3.438   1.156   4.583  1.0341 -1.4259 -0.4901
   27POPC     N 3485   4.570   4.913   6.321  0.1494 -0.8293 -0.7808
   27POPC   C12 3486   4.609   4.978   6.200  0.0191  0.3555  0.2546
   27POPC  H12A 3487   4.639   5.080   6.215  1.0262 -0.0847  1.4176
   27POPC  H12B 3488   4.521   4.976   6.138 -0.4742 -0.4131  0.9453
   27POPC   C13 3489   4.456   4.983   6.380 -0.3601 -0.2178  0.0314
   27POPC  H13A 3490   4.470   5.090   6.382 -1.3320 -0.0803  0.1530
   27POPC  H13B 3491   4.365   4.960   6.327 -1.8596  3.3481  0.7711
   27POPC  H13C 3492   4.443   4.951   6.482  1.3346 -0.9890  0.0496
   27POPC   C14 3493   4.529   4.772   6.298  0.0520 -0.3850 -0.0077
   27POPC  H14A 3494   4.519   4.724   6.394  0.3918  0.2079  0.3296
   27POPC  H14B 3495   4.427   4.765   6.264  0.0638  0.5447 -0.2671
   27POPC  H14C 3496   4.595   4.707   6.243  0.6705 -0.7314  1.1229
   27POPC   C15 3497   4.676   4.906   6.422 -0.0370  0.2884  0.3892
   27POPC  H15A 3498   4.771   4.875   6.380  0.6367  2.8552 -0.2172
   27POPC  H15B 3499   4.644   4.844   6.504 -0.2862  0.6428  0.5628
   27POPC  H15C 3500   4.687   5.003   6.469 -0.0867 -0.4178  1.8966
   27POPC   C11 3501   4.711   4.902   6.115 -0.3704  0.6240 -0.7898
   27POPC  H11A 3502   4.718   4.953   6.017  1.7664  0.1021 -0.9579
   27POPC  H11B 3503   4.672   4.801   6.092 -0.6729  0.0206  1.9591
   27POPC     P 3504   4.965   4.964   6.140 -0.1538  0.2901 -0.1493
   27POPC   O13 3505   5.082   4.937   6.232 -0.1599 -0.4427 -0.4590
   27POPC   O14 3506   4.919   5.100   6.109 -0.1696 -0.3499  0.3049
   27POPC   O12 3507   4.840   4.886   6.186 -0.0686  0.8866 -0.2901
   27POPC   O11 3508   5.005   4.896   5.999 -0.3734 -0.0231  0.0982
   27POPC    C1 3509   5.131   4.931   5.933  0.1530  0.2814 -0.3615
   27POPC    HA 3510   5.157   4.856   5.854  0.8121  1.2969 -1.1246
   27POPC    HB 3511   5.215   4.931   6.006 -0.6070 -1.2819  0.5762
   27POPC    C2 3512   5.125   5.070   5.861 -0.0152  0.0721 -0.5199
   27POPC    HS 3513   5.106   5.141   5.945 -0.6944  0.0813 -0.6748
   27POPC   O21 3514   5.016   5.081   5.774 -0.1303  0.6040  0.5547
   27POPC   C21 3515   4.998   5.198   5.713 -0.2062 -0.8412  0.0500
   27POPC   O22 3516   5.076   5.291   5.726  0.0413  0.2558  0.1468
   27POPC   C22 3517   4.868   5.185   5.639  0.6645  0.4747 -0.5424
   27POPC   H2R 3518   4.789   5.196   5.716  0.5331 -1.5522 -0.3250
   27POPC   H2S 3519   4.859   5.083   5.595 -0.9383  1.4207 -2.6035
   27POPC    C3 3520   5.268   5.098   5.808  0.9147 -0.0543 -0.6169
   27POPC    HX 3521   5.321   5.109   5.905  0.7700  0.7893 -0.6278
   27POPC    HY 3522   5.269   5.196   5.756  0.9899  0.0242 -0.4674
   27POPC   O31 3523   5.322   4.993   5.730  0.1702 -0.0266  0.3954
   27POPC   C31 3524   5.422   4.916   5.780  0.3042 -0.4654 -0.4140
   27POPC   O32 3525   5.459   4.915   5.895 -0.3397 -0.0714  0.2408
   27POPC   C32 3526   5.486   4.815   5.681  0.4071 -0.0505  0.4182
   27POPC   H2X 3527   5.405   4.739   5.680  0.2209  0.1341 -1.2064
   27POPC   H2Y 3528   5.566   4.759   5.734  2.0677  1.1689 -0.7174
   27POPC   C23 3529   4.855   5.292   5.523  0.6588 -0.5249 -0.4183
   27POPC   H3R 3530   4.890   5.387   5.570  5.2691 -2.8686  1.5920
   27POPC   H3S 3531   4.748   5.301   5.494  1.3102 -1.1602 -3.4047
   27POPC   C24 3532   4.926   5.249   5.395 -0.2519  0.2867 -0.1092
   27POPC   H4R 3533   4.872   5.156   5.366  0.9551 -1.1278  1.9198
   27POPC   H4S 3534   5.034   5.220   5.399 -0.4896 -0.8108 -1.1687
   27POPC   C25 3535   4.918   5.363   5.291  0.8004 -0.4649  0.7183
   27POPC   H5R 3536   4.995   5.434   5.327 -0.0023 -0.5132  2.6575
   27POPC   H5S 3537   4.817   5.409   5.284  1.5108  0.9507 -1.0552
   27POPC   C26 3538   4.968   5.324   5.150  0.8272 -0.5548 -0.4941
   27POPC   H6R 3539   4.908   5.240   5.110 -2.8117  2.6682 -2.5293
   27POPC   H6S 3540   5.076   5.302   5.148  0.7350 -0.9996 -2.1265
   27POPC   C27 3541   4.948   5.444   5.044  0.2051 -0.3468 -0.6776
   27POPC   H7R 3542   4.987   5.539   5.086  1.0439 -0.7051 -0.6346
   27POPC   H7S 3543   4.839   5.462   5.034  0.3590  0.2897 -1.3313
   27POPC   C28 3544   5.002   5.417   4.908 -0.1140  0.6341 -0.4164
   27POPC   H8R 3545   5.113   5.414   4.903  0.0900  2.2925  1.8679
   27POPC   H8S 3546   4.983   5.497   4.833 -0.4921  0.9949  0.0636
   27POPC   C29 3547   4.928   5.303   4.845 -0.3875 -0.7556  0.2006
   27POPC   H91 3548   4.822   5.298   4.871 -0.7516 -2.3588 -1.3774
   27POPC  C210 3549   4.974   5.194   4.774  0.2142 -0.2319  0.2846
   27POPC  H101 3550   4.896   5.126   4.739  0.8672  0.8360 -3.6988
   27POPC  C211 3551   5.120   5.166   4.740 -0.2996  0.1163 -1.0782
   27POPC  H11R 3552   5.191   5.235   4.791 -1.1269 -0.2713  0.6925
   27POPC  H11S 3553   5.133   5.178   4.630 -1.3816 -0.1516 -1.2526
   27POPC  C212 3554   5.166   5.018   4.770  0.2740 -0.5065  0.5085
   27POPC  H12R 3555   5.275   5.010   4.755  0.1843 -0.0844 -0.4535
   27POPC  H12S 3556   5.104   4.956   4.702 -1.1944  0.5016  0.8812
   27POPC  C213 3557   5.147   4.969   4.918 -0.3016  0.5240  0.5580
   27POPC  H13R 3558   5.041   4.937   4.924 -0.5356  0.9460 -1.0654
   27POPC  H13S 3559   5.161   5.047   4.996 -1.1010  0.7673  0.4615
   27POPC  C214 3560   5.232   4.843   4.948 -0.3209 -0.4809 -0.4475
   27POPC  H14R 3561   5.334   4.880   4.971 -1.5054  2.0323  1.1644
   27POPC  H14S 3562   5.215   4.771   4.865 -1.2868  1.2004 -1.7709
   27POPC  C215 3563   5.183   4.768   5.071  0.8447  0.3708 -0.5829
   27POPC  H15R 3564   5.240   4.673   5.084 -0.8711 -0.8356 -1.4435
   27POPC  H15S 3565   5.076   4.744   5.058  0.8072 -2.3709  3.2170
   27POPC  C216 3566   5.178   4.850   5.199  0.1965  0.7402  0.3507
   27POPC  H16R 3567   5.114   4.939   5.178 -2.0740 -1.1701 -1.4705
   27POPC  H16S 3568   5.281   4.881   5.223  0.1404  1.5143 -0.3364
   27POPC  C217 3569   5.109   4.776   5.318  0.0642 -0.2823 -0.1629
   27POPC  H17R 3570   5.176   4.693   5.348  0.5968  0.5291  0.9264
   27POPC  H17S 3571   5.014   4.733   5.278 -0.2950 -0.4083  0.8112
   27POPC  C218 3572   5.096   4.865   5.444 -0.1978  0.2903 -0.2840
   27POPC  H18R 3573   5.032   4.813   5.518 -2.3645  1.2402 -1.4121
   27POPC  H18S 3574   5.038   4.953   5.409 -0.5244 -0.0982 -0.7368
   27POPC  H18T 3575   5.189   4.899   5.495 -1.4378  0.2104  2.1654
   27POPC   C33 3576   5.535   4.865   5.548  0.2182 -0.3255  0.1898
   27POPC   H3X 3577   5.610   4.945   5.566 -0.4934  0.0115  1.8672
   27POPC   H3Y 3578   5.463   4.917   5.481  1.5582  3.0022  1.1363
   27POPC   C34 3579   5.603   4.753   5.467  0.0422  0.1541 -0.1314
   27POPC   H4X 3580   5.537   4.670   5.434  1.0431 -1.1238  0.9524
   27POPC   H4Y 3581   5.673   4.703   5.537 -0.4772  0.3091  0.5149
   27POPC   C35 3582   5.672   4.810   5.344 -0.4368 -0.1720 -0.5886
   27POPC   H5X 3583   5.744   4.884   5.384 -0.2026 -0.3620 -0.6552
   27POPC   H5Y 3584   5.589   4.858   5.288  0.3558  0.2396 -1.4376
   27POPC   C36 3585   5.740   4.709   5.252  0.8234  0.1020 -0.3425
   27POPC   H6X 3586   5.671   4.624   5.231  0.5517  0.6974 -2.0011
   27POPC   H6Y 3587   5.825   4.666   5.309  0.8299 -0.4545 -0.7624
   27POPC   C37 3588   5.782   4.779   5.125  0.4981  0.0992 -0.0810
   27POPC   H7X 3589   5.836   4.701   5.066 -2.1132 -1.2504 -0.8251
   27POPC   H7Y 3590   5.859   4.859   5.134  0.6205 -0.0767  0.4766
   27POPC   C38 3591   5.668   4.823   5.034 -0.6585 -0.0307 -0.1644
   27POPC   H8X 3592   5.625   4.915   5.079  0.3083 -0.6863  2.2037
   27POPC   H8Y 3593   5.583   4.752   5.042 -1.0726  0.5779  1.0010
   27POPC   C39 3594   5.699   4.837   4.884  0.0484 -0.5005 -0.4721
   27POPC   H9X 3595   5.740   4.743   4.842  1.3924  0.4183 -1.3297
   27POPC   H9Y 3596   5.770   4.920   4.861 -2.6335  1.6444 -1.5426
   27POPC  C310 3597   5.570   4.858   4.804  0.2399 -0.3111  1.1529
   27POPC  H10X 3598   5.506   4.935   4.851 -1.1213 -0.6743 -0.0391
   27POPC  H10Y 3599   5.511   4.764   4.799 -0.1304 -0.0261 -2.5453
   27POPC  C311 3600   5.623   4.898   4.666 -0.4865  0.1001  0.2266
   27POPC  H11X 3601   5.700   4.825   4.634  0.6167  1.2007  0.2871
   27POPC  H11Y 3602   5.679   4.994   4.660 -1.8715  0.9112 -0.0485
   27POPC  C312 3603   5.516   4.897   4.553 -0.8311 -0.0478 -0.2990
   27POPC  H12X 3604   5.450   4.980   4.583 -0.8371  0.7506 -2.4199
   27POPC  H12Y 3605   5.470   4.796   4.554 -0.9538  0.0092  0.5366
   27POPC  C313 3606   5.563   4.923   4.412  0.6590 -0.3913  0.1858
   27POPC  H13X 3607   5.608   4.827   4.378  1.5848 -0.9221  2.7191
   27POPC  H13Y 3608   5.648   4.994   4.416  0.3308 -0.0427  1.0995
   27POPC  C314 3609   5.451   4.962   4.319 -0.4680 -0.3913  0.1872
   27POPC  H14X 3610   5.420   5.068   4.336  0.1075 -0.2636  0.4528
   27POPC  H14Y 3611   5.355   4.913   4.347 -1.1500  1.2564  0.8779
   27POPC  C315 3612   5.476   4.926   4.176  0.4052 -0.1342  0.0882
   27POPC  H15X 3613   5.511   4.820   4.174  2.7880  0.5989 -2.3049
   27POPC  H15Y 3614   5.557   4.983   4.127  2.8160 -1.6713  2.0291
   27POPC  C316 3615   5.350   4.952   4.086 -0.3330 -0.2703 -0.7810
   27POPC  H16X 3616   5.259   4.896   4.118 -0.6285  0.5761 -0.0755
   27POPC  H16Y 3617   5.370   4.922   3.981  0.6380  1.4758 -1.1395
   27POPC  H16Z 3618   5.320   5.058   4.098  2.6785  0.6269 -0.3936
   28POPC     N 3619   5.242   2.119   6.155  0.5105 -0.6250 -0.2666
   28POPC   C12 3620   5.352   2.087   6.047  0.2464  0.4931  0.3990
   28POPC  H12A 3621   5.343   1.982   6.024 -0.5793  1.0065 -1.9922
   28POPC  H12B 3622   5.450   2.117   6.080  0.3300 -0.8993  1.5165
   28POPC   C13 3623   5.284   2.051   6.283  0.6499 -0.3511 -0.1107
   28POPC  H13A 3624   5.297   1.945   6.264 -0.4437 -0.8675  1.7602
   28POPC  H13B 3625   5.382   2.084   6.317  1.3137 -1.0130 -1.3194
   28POPC  H13C 3626   5.211   2.060   6.361  1.6844 -0.1069  0.8607
   28POPC   C14 3627   5.231   2.265   6.169  0.1928 -0.6425 -0.5021
   28POPC  H14A 3628   5.316   2.314   6.215 -0.3954 -1.4014  1.4904
   28POPC  H14B 3629   5.215   2.310   6.072  2.4607 -1.2869 -1.2243
   28POPC  H14C 3630   5.151   2.293   6.236 -0.1989 -0.0374 -1.2077
   28POPC   C15 3631   5.110   2.054   6.114 -0.3203  0.0656  0.1167
   28POPC  H15A 3632   5.035   2.060   6.191 -1.2489  1.2595 -0.8269
   28POPC  H15B 3633   5.125   1.948   6.103  0.7225 -0.0821  2.4075
   28POPC  H15C 3634   5.085   2.102   6.021  0.4922  0.8621  0.2911
   28POPC   C11 3635   5.334   2.162   5.915  0.2018 -0.5919 -0.3561
   28POPC  H11A 3636   5.231   2.136   5.883 -1.1508  1.0700  2.3106
   28POPC  H11B 3637   5.398   2.116   5.836 -0.7998 -1.8694 -0.4499
   28POPC     P 3638   5.507   2.359   5.951 -0.0168  0.6396 -0.1144
   28POPC   O13 3639   5.563   2.288   6.069 -0.1442  0.2336  0.0450
   28POPC   O14 3640   5.499   2.508   5.950 -0.6282 -0.1316  0.5058
   28POPC   O12 3641   5.357   2.303   5.925 -0.2076  0.0774 -0.1141
   28POPC   O11 3642   5.579   2.310   5.819 -0.3666 -0.8110 -0.1518
   28POPC    C1 3643   5.573   2.388   5.698  0.1800 -0.1324 -0.2616
   28POPC    HA 3644   5.668   2.382   5.640  0.3318 -0.4806  0.0157
   28POPC    HB 3645   5.557   2.496   5.719  1.8402  0.2025 -0.6070
   28POPC    C2 3646   5.457   2.345   5.603  0.2246  0.4101 -0.2566
   28POPC    HS 3647   5.363   2.324   5.659  0.3924 -1.5359 -0.6206
   28POPC   O21 3648   5.502   2.229   5.533 -0.8011  0.0091 -0.4175
   28POPC   C21 3649   5.409   2.139   5.501  0.7418  0.4138  0.3447
   28POPC   O22 3650   5.288   2.159   5.526  0.3412 -0.2772  0.1663
   28POPC   C22 3651   5.459   2.009   5.426  0.2874  0.1485 -0.0328
   28POPC   H2R 3652   5.383   1.928   5.426  1.0298 -0.5672 -0.7144
   28POPC   H2S 3653   5.548   1.971   5.479 -1.8434 -1.3429  2.7028
   28POPC    C3 3654   5.429   2.464   5.508 -0.0275  0.5184 -0.3161
   28POPC    HX 3655   5.530   2.506   5.488  0.7318 -0.0648  2.0426
   28POPC    HY 3656   5.367   2.528   5.575  1.3023  1.0342  0.4412
   28POPC   O31 3657   5.369   2.420   5.390  0.0238  0.0872 -0.0866
   28POPC   C31 3658   5.241   2.448   5.364  0.3735 -0.2029  0.3207
   28POPC   O32 3659   5.163   2.492   5.442 -0.3535  0.4558  0.0341
   28POPC   C32 3660   5.216   2.435   5.220  0.0466  0.4131 -0.0880
   28POPC   H2X 3661   5.113   2.476   5.206 -0.9090 -1.5310  0.7880
   28POPC   H2Y 3662   5.216   2.325   5.203 -0.0212  0.4434 -0.2857
   28POPC   C23 3663   5.497   2.033   5.277 -0.4865  0.1268  0.5382
   28POPC   H3R 3664   5.507   1.933   5.231 -1.7260  0.3262 -0.2144
   28POPC   H3S 3665   5.595   2.085   5.268 -1.6451  2.1463 -1.9190
   28POPC   C24 3666   5.385   2.102   5.193 -0.7974  0.4103  0.0288
   28POPC   H4R 3667   5.393   2.210   5.218 -1.4382  0.3411  0.5619
   28POPC   H4S 3668   5.283   2.070   5.226 -1.9848  1.9081 -1.9552
   28POPC   C25 3669   5.402   2.077   5.039  0.2836  0.0588 -0.5213
   28POPC   H5R 3670   5.318   2.138   4.999  0.4524  0.1449 -0.7389
   28POPC   H5S 3671   5.389   1.968   5.018  0.8621  0.2812 -2.1576
   28POPC   C26 3672   5.535   2.141   4.998 -0.0452 -0.1022  0.1280
   28POPC   H6R 3673   5.613   2.073   5.038  0.3017  0.2261  0.0177
   28POPC   H6S 3674   5.548   2.239   5.048 -0.3594 -0.3822  0.7798
   28POPC   C27 3675   5.543   2.159   4.846  0.8741  1.0840  0.1302
   28POPC   H7R 3676   5.474   2.241   4.816  0.6426  1.0541  0.5678
   28POPC   H7S 3677   5.506   2.072   4.788  1.4875  0.5613  0.5130
   28POPC   C28 3678   5.684   2.190   4.793 -0.5319 -0.5822 -0.3229
   28POPC   H8R 3679   5.680   2.189   4.682  0.9281 -0.3823 -0.3875
   28POPC   H8S 3680   5.754   2.112   4.828  3.5378  2.9860  0.2513
   28POPC   C29 3681   5.743   2.322   4.836 -0.6370  0.1049 -0.1998
   28POPC   H91 3682   5.793   2.316   4.934  1.3232  0.6586 -1.1389
   28POPC  C210 3683   5.741   2.441   4.774 -0.7863 -0.3215 -0.8537
   28POPC  H101 3684   5.795   2.525   4.820 -0.5545 -1.5607  1.3114
   28POPC  C211 3685   5.670   2.470   4.644 -0.1755  0.2095  0.2249
   28POPC  H11R 3686   5.621   2.569   4.638  1.6368  1.0425 -2.7050
   28POPC  H11S 3687   5.598   2.392   4.613  1.9426 -1.8245  0.1110
   28POPC  C212 3688   5.762   2.452   4.521  0.8081  0.1692 -0.5197
   28POPC  H12R 3689   5.810   2.351   4.528 -0.6603 -0.4279  2.1992
   28POPC  H12S 3690   5.839   2.532   4.523  0.2163  0.7757  2.4343
   28POPC  C213 3691   5.690   2.466   4.388  0.0403 -0.8312  0.1888
   28POPC  H13R 3692   5.648   2.567   4.367  1.7011 -0.6662 -2.9973
   28POPC  H13S 3693   5.605   2.395   4.378  0.9746 -1.7445 -1.8078
   28POPC  C214 3694   5.775   2.429   4.278 -0.6333  0.1679  0.2047
   28POPC  H14R 3695   5.795   2.320   4.272  0.6585  0.4109 -0.5383
   28POPC  H14S 3696   5.876   2.477   4.285 -0.5910 -0.0010  0.8162
   28POPC  C215 3697   5.719   2.476   4.147 -0.0376 -0.5022  0.4259
   28POPC  H15R 3698   5.706   2.584   4.169 -0.2609 -0.7394  1.4850
   28POPC  H15S 3699   5.620   2.428   4.128 -0.6649  0.5954  0.8176
   28POPC  C216 3700   5.809   2.451   4.016  0.2067 -0.0123  1.4959
   28POPC  H16R 3701   5.854   2.351   3.997  3.0335  1.4789 -0.2704
   28POPC  H16S 3702   5.903   2.510   4.009 -1.1218  2.0253 -0.7934
   28POPC  C217 3703   5.723   2.486   3.888 -0.8945  0.3371 -0.4889
   28POPC  H17R 3704   5.680   2.584   3.914  0.7277  1.3520 -1.4780
   28POPC  H17S 3705   5.646   2.407   3.905  0.9349 -1.4301  0.0146
   28POPC  C218 3706   5.803   2.479   3.757 -0.1199 -0.7496 -0.6109
   28POPC  H18R 3707   5.828   2.377   3.723 -0.8091 -1.1713  0.1061
   28POPC  H18S 3708   5.891   2.546   3.766 -1.0706  0.5338 -0.5118
   28POPC  H18T 3709   5.731   2.516   3.681  0.3544  1.2577 -0.1319
   28POPC   C33 3710   5.334   2.492   5.138  0.3564  0.0790  0.2602
   28POPC   H3X 3711   5.425   2.434   5.163  1.1212  1.7464  1.5336
   28POPC   H3Y 3712   5.363   2.592   5.177  0.4325  0.5957 -1.0398
   28POPC   C34 3713   5.315   2.506   4.983 -0.7518  0.5482  1.1702
   28POPC   H4X 3714   5.290   2.408   4.937  1.1184  0.3544  0.4918
   28POPC   H4Y 3715   5.416   2.514   4.938 -0.5739  1.7789  1.7573
   28POPC   C35 3716   5.222   2.620   4.942  0.3744  0.3059  0.2897
   28POPC   H5X 3717   5.270   2.717   4.970  1.7477  0.3382 -1.9876
   28POPC   H5Y 3718   5.123   2.608   4.991  0.0776  0.8613 -0.1668
   28POPC   C36 3719   5.197   2.630   4.791  0.3736  0.5116  0.5388
   28POPC   H6X 3720   5.113   2.697   4.763  0.0968 -0.2425 -0.5020
   28POPC   H6Y 3721   5.168   2.532   4.747 -0.1399  1.0678 -0.3888
   28POPC   C37 3722   5.324   2.680   4.718 -0.6802 -0.1026 -0.1714
   28POPC   H7X 3723   5.417   2.626   4.746  0.5280  1.6007 -0.7893
   28POPC   H7Y 3724   5.336   2.782   4.759  2.0239 -0.3850 -0.1321
   28POPC   C38 3725   5.311   2.681   4.567  0.1248 -0.2674 -1.5566
   28POPC   H8X 3726   5.214   2.730   4.544 -0.1278 -0.4041 -0.7951
   28POPC   H8Y 3727   5.300   2.575   4.536  3.3852 -1.5536  1.1004
   28POPC   C39 3728   5.424   2.738   4.493  0.2689 -0.3860  0.2884
   28POPC   H9X 3729   5.510   2.668   4.492  0.3144 -0.3440 -1.6830
   28POPC   H9Y 3730   5.464   2.824   4.552 -1.0039  0.4429 -0.0134
   28POPC  C310 3731   5.390   2.780   4.355 -0.2848  0.0403  0.2395
   28POPC  H10X 3732   5.476   2.825   4.301  0.2944 -1.0435  0.2374
   28POPC  H10Y 3733   5.309   2.856   4.362  0.2852  0.5531  1.4963
   28POPC  C311 3734   5.344   2.661   4.258 -0.1736  0.0847  0.7547
   28POPC  H11X 3735   5.254   2.605   4.292 -0.3478 -0.4305 -0.5026
   28POPC  H11Y 3736   5.430   2.595   4.231 -1.3309 -0.9028 -0.6728
   28POPC  C312 3737   5.280   2.713   4.126  0.4635 -0.1173  0.0614
   28POPC  H12X 3738   5.186   2.767   4.151  1.0618  0.9977 -0.0127
   28POPC  H12Y 3739   5.252   2.630   4.058  3.7381  0.6543 -2.5127
   28POPC  C313 3740   5.387   2.787   4.028 -0.0875 -0.8051 -1.2291
   28POPC  H13X 3741   5.481   2.728   4.032 -0.8278 -1.9962 -0.3130
   28POPC  H13Y 3742   5.403   2.886   4.076 -2.7369  0.3719 -2.5287
   28POPC  C314 3743   5.332   2.814   3.897 -0.3874  0.5169 -0.4807
   28POPC  H14X 3744   5.233   2.865   3.903 -0.8004 -0.4138  1.0678
   28POPC  H14Y 3745   5.314   2.718   3.844 -0.2087 -0.1869  0.7064
   28POPC  C315 3746   5.434   2.895   3.818 -0.0863  0.0320  0.4373
   28POPC  H15X 3747   5.532   2.842   3.812  0.4976  1.2246 -1.2352
   28POPC  H15Y 3748   5.441   2.989   3.877  0.1727 -0.7165  1.6489
   28POPC  C316 3749   5.385   2.940   3.678 -0.3347 -0.0596  0.1389
   28POPC  H16X 3750   5.276   2.961   3.685 -0.6404 -2.1853  3.0204
   28POPC  H16Y 3751   5.404   2.852   3.613  4.1791  1.5134 -1.0369
   28POPC  H16Z 3752   5.450   3.016   3.628 -1.8795  0.9881 -0.3884
   29POPC     N 3753   0.672   4.248   5.845 -0.3510 -0.0411  0.3174
   29POPC   C12 3754   0.727   4.167   5.963  0.3414 -0.3166 -0.0071
   29POPC  H12A 3755   0.781   4.230   6.031 -0.3067 -0.2543  0.4574
   29POPC  H12B 3756   0.797   4.093   5.928 -1.0041 -1.7458  0.2321
   29POPC   C13 3757   0.579   4.164   5.762  0.3442 -1.1143  0.2022
   29POPC  H13A 3758   0.632   4.071   5.747  0.3605 -0.8800 -1.3499
   29POPC  H13B 3759   0.486   4.143   5.814  0.7367 -1.4227  0.7924
   29POPC  H13C 3760   0.565   4.205   5.663 -0.3517 -1.1768  0.2676
   29POPC   C14 3761   0.601   4.377   5.875 -0.5292 -0.3046 -0.8194
   29POPC  H14A 3762   0.527   4.359   5.952  1.1484  0.5423  1.0664
   29POPC  H14B 3763   0.673   4.447   5.914 -1.1128 -0.8191  1.3403
   29POPC  H14C 3764   0.555   4.419   5.787  0.2939  2.6727  0.0603
   29POPC   C15 3765   0.781   4.287   5.757 -0.0900  0.5914  0.3458
   29POPC  H15A 3766   0.764   4.376   5.698  1.3552  0.7022  0.0596
   29POPC  H15B 3767   0.804   4.209   5.685 -0.5474  0.0471  0.7799
   29POPC  H15C 3768   0.878   4.305   5.802 -0.1456  1.7831  0.0248
   29POPC   C11 3769   0.623   4.080   6.050  0.2125 -1.0072 -0.4303
   29POPC  H11A 3770   0.688   4.024   6.120  0.6224  0.3569  0.3241
   29POPC  H11B 3771   0.574   4.006   5.983 -0.5753  0.7795 -1.9489
   29POPC     P 3772   0.375   4.127   6.112 -0.2551  0.6006  0.6859
   29POPC   O13 3773   0.306   4.257   6.128 -0.3686 -0.0844  0.2003
   29POPC   O14 3774   0.338   4.022   6.217  0.3615  0.0361  0.9124
   29POPC   O12 3775   0.530   4.166   6.118 -0.0876 -0.7032 -0.4126
   29POPC   O11 3776   0.348   4.076   5.961  0.2476  0.4876  1.1810
   29POPC    C1 3777   0.222   4.037   5.912 -0.1964  0.1609  0.0745
   29POPC    HA 3778   0.138   4.063   5.980  1.0413 -0.8925  2.0880
   29POPC    HB 3779   0.221   3.926   5.903  0.2714  0.1361  0.2753
   29POPC    C2 3780   0.188   4.111   5.776  0.4848  0.0080 -0.5702
   29POPC    HS 3781   0.081   4.097   5.751  0.8504  0.0455 -2.2550
   29POPC   O21 3782   0.267   4.062   5.668  0.2526 -0.2804  0.3343
   29POPC   C21 3783   0.240   3.941   5.637  0.2969 -0.4621 -0.0710
   29POPC   O22 3784   0.137   3.882   5.665 -0.0352 -0.3107 -0.5777
   29POPC   C22 3785   0.353   3.877   5.550 -0.0073 -0.8471 -0.4155
   29POPC   H2R 3786   0.421   3.850   5.633  1.1829  1.8289 -0.4363
   29POPC   H2S 3787   0.416   3.948   5.492  2.2634 -1.2596  1.4255
   29POPC    C3 3788   0.205   4.261   5.794 -0.5791 -0.5120  0.5940
   29POPC    HX 3789   0.314   4.279   5.809 -0.0440 -1.1569 -1.9753
   29POPC    HY 3790   0.161   4.304   5.886 -0.5409  1.2923 -0.1844
   29POPC   O31 3791   0.161   4.329   5.671 -0.1305 -0.2974  0.1968
   29POPC   C31 3792   0.243   4.408   5.607  0.2970 -0.1456 -0.6166
   29POPC   O32 3793   0.355   4.428   5.649  0.6169 -0.2147  0.2353
   29POPC   C32 3794   0.172   4.468   5.488  0.7199  0.3334 -0.4131
   29POPC   H2X 3795   0.205   4.574   5.482  0.9733  0.2144 -1.1423
   29POPC   H2Y 3796   0.063   4.463   5.512  0.5809  0.7590 -0.9409
   29POPC   C23 3797   0.317   3.759   5.464  0.5399 -0.1794  0.1820
   29POPC   H3R 3798   0.255   3.786   5.375  0.4441 -4.2521 -1.1981
   29POPC   H3S 3799   0.254   3.692   5.526  0.7969 -1.1624 -0.5894
   29POPC   C24 3800   0.432   3.664   5.422  0.4919  0.7636  0.0085
   29POPC   H4R 3801   0.372   3.577   5.389 -0.7045  1.8272 -0.7170
   29POPC   H4S 3802   0.491   3.655   5.516 -1.1238 -0.7922  0.9457
   29POPC   C25 3803   0.523   3.705   5.309  0.1916  0.2212  0.7401
   29POPC   H5R 3804   0.593   3.781   5.351  0.0822  0.8763 -0.2338
   29POPC   H5S 3805   0.458   3.748   5.230  2.0413 -2.4613 -2.4827
   29POPC   C26 3806   0.586   3.583   5.227  0.1859  0.4120  0.7229
   29POPC   H6R 3807   0.500   3.542   5.169 -1.0931  0.3845  2.5498
   29POPC   H6S 3808   0.619   3.500   5.294 -0.3010 -1.1317 -0.8829
   29POPC   C27 3809   0.702   3.613   5.135 -0.1648 -0.6487 -0.2672
   29POPC   H7R 3810   0.798   3.635   5.186 -0.1273  0.6199 -0.8632
   29POPC   H7S 3811   0.674   3.702   5.075  0.2232 -0.7484 -0.5986
   29POPC   C28 3812   0.736   3.496   5.047 -0.4071 -0.5635 -0.3818
   29POPC   H8R 3813   0.636   3.475   5.003 -1.8699  2.3730  1.2105
   29POPC   H8S 3814   0.773   3.405   5.099 -0.2614 -1.2368 -1.6302
   29POPC   C29 3815   0.832   3.529   4.936 -0.0140 -1.0757 -0.0586
   29POPC   H91 3816   0.940   3.529   4.955 -0.1479 -0.6909  0.7504
   29POPC  C210 3817   0.796   3.535   4.803 -0.2681 -0.6201  0.1805
   29POPC  H101 3818   0.875   3.555   4.729  1.3239 -1.9919  1.4228
   29POPC  C211 3819   0.659   3.514   4.744  0.1151  0.5051 -0.2848
   29POPC  H11R 3820   0.586   3.542   4.823 -1.4120 -0.5329 -1.2608
   29POPC  H11S 3821   0.648   3.404   4.733 -0.9899  0.6160 -0.3724
   29POPC  C212 3822   0.620   3.589   4.616 -0.5288  0.5991 -0.9419
   29POPC  H12R 3823   0.637   3.697   4.632  0.5128  0.2958  0.1707
   29POPC  H12S 3824   0.524   3.556   4.570  1.6318 -1.8576 -4.1990
   29POPC  C213 3825   0.708   3.544   4.495  0.0682 -0.3358  0.3200
   29POPC  H13R 3826   0.697   3.435   4.474  0.3302 -0.6978  1.9099
   29POPC  H13S 3827   0.816   3.567   4.505  0.2728 -1.5449  1.1223
   29POPC  C214 3828   0.652   3.621   4.370  0.0706 -0.3382  0.6847
   29POPC  H14R 3829   0.660   3.730   4.387 -1.1260  0.1685 -1.5795
   29POPC  H14S 3830   0.543   3.604   4.362  0.4018 -2.4936  0.1504
   29POPC  C215 3831   0.726   3.581   4.237  0.0704  0.3543 -0.3228
   29POPC  H15R 3832   0.695   3.478   4.207  2.6105 -0.5378 -0.0900
   29POPC  H15S 3833   0.835   3.582   4.256  0.1092 -1.0128 -0.3591
   29POPC  C216 3834   0.691   3.663   4.113 -0.0378 -0.6926 -0.1564
   29POPC  H16R 3835   0.729   3.768   4.120  0.5432 -0.8976 -0.1886
   29POPC  H16S 3836   0.582   3.674   4.097 -0.5111 -1.8920  1.9048
   29POPC  C217 3837   0.754   3.598   3.989  0.4052  0.3216 -0.0441
   29POPC  H17R 3838   0.859   3.569   4.010  0.3807  0.3023  0.0493
   29POPC  H17S 3839   0.750   3.670   3.904 -1.7398  1.0242  0.5844
   29POPC  C218 3840   0.681   3.473   3.941 -0.5745  0.7067  0.7031
   29POPC  H18R 3841   0.704   3.390   4.010 -0.5828  1.2614  1.3819
   29POPC  H18S 3842   0.722   3.441   3.843 -0.2637  0.5786  0.8729
   29POPC  H18T 3843   0.570   3.483   3.944 -0.6276  0.6364 -0.4315
   29POPC   C33 3844   0.184   4.385   5.358 -0.3746  0.0047 -0.3164
   29POPC   H3X 3845   0.292   4.361   5.346  0.1758  0.1729  3.0640
   29POPC   H3Y 3846   0.137   4.441   5.275 -1.6324  0.2545  0.5237
   29POPC   C34 3847   0.118   4.243   5.370  0.3020  0.0280 -0.1515
   29POPC   H4X 3848   0.009   4.258   5.383  0.2416 -1.4658  1.5877
   29POPC   H4Y 3849   0.161   4.191   5.459  1.0066  0.5870 -0.1562
   29POPC   C35 3850   0.143   4.151   5.244 -0.7510 -0.6830 -1.0937
   29POPC   H5X 3851   0.101   4.194   5.150 -0.1332 -0.4443 -1.2653
   29POPC   H5Y 3852   0.088   4.057   5.267  0.5671 -1.2493 -0.1421
   29POPC   C36 3853   0.289   4.115   5.209  0.5028 -0.0857 -0.2625
   29POPC   H6X 3854   0.330   4.068   5.301 -0.7756  1.6412  1.2575
   29POPC   H6Y 3855   0.352   4.198   5.172  1.4571 -1.2065 -1.2502
   29POPC   C37 3856   0.288   4.004   5.099 -0.5798 -0.5683  0.2166
   29POPC   H7X 3857   0.203   4.016   5.029 -0.2492  1.2651  0.0759
   29POPC   H7Y 3858   0.251   3.908   5.141 -3.4062 -0.6437 -2.1876
   29POPC   C38 3859   0.423   3.999   5.028 -0.5136  0.1113 -0.1908
   29POPC   H8X 3860   0.504   3.991   5.104 -0.4758  2.1562  0.0305
   29POPC   H8Y 3861   0.452   4.095   4.979  2.9455 -0.4752  0.4129
   29POPC   C39 3862   0.436   3.879   4.931 -0.1724  0.2861 -0.1512
   29POPC   H9X 3863   0.431   3.786   4.991 -1.2661 -0.1088 -0.8096
   29POPC   H9Y 3864   0.540   3.877   4.891 -0.1203 -1.0463  0.0194
   29POPC  C310 3865   0.339   3.877   4.828  0.9264  0.2873  0.6827
   29POPC  H10X 3866   0.341   3.972   4.770  0.2655 -0.6739 -1.0170
   29POPC  H10Y 3867   0.237   3.863   4.870  0.3985  0.0290 -0.6128
   29POPC  C311 3868   0.349   3.758   4.738  0.4405  0.1294  0.9906
   29POPC  H11X 3869   0.370   3.661   4.787  2.7637 -0.3785 -0.8087
   29POPC  H11Y 3870   0.433   3.769   4.666 -0.8918  0.8474 -0.5332
   29POPC  C312 3871   0.217   3.747   4.662  0.1782  0.0508  0.4970
   29POPC  H12X 3872   0.188   3.846   4.620 -1.8561 -1.2361 -1.2777
   29POPC  H12Y 3873   0.144   3.712   4.739  1.1280 -1.9767  0.5327
   29POPC  C313 3874   0.233   3.638   4.555 -0.2364  0.7702 -0.7277
   29POPC  H13X 3875   0.231   3.532   4.590 -3.4230  1.1170  0.4164
   29POPC  H13Y 3876   0.330   3.655   4.504 -0.9672 -1.8693 -3.3039
   29POPC  C314 3877   0.122   3.643   4.451 -0.6057  0.5327 -0.1623
   29POPC  H14X 3878   0.095   3.745   4.418 -0.1380  0.3064 -1.2897
   29POPC  H14Y 3879   0.034   3.589   4.494 -0.9613  1.3257  0.1337
   29POPC  C315 3880   0.153   3.577   4.313 -0.3305  0.4438  1.2683
   29POPC  H15X 3881   0.205   3.480   4.331 -1.4722 -0.1278  1.6185
   29POPC  H15Y 3882   0.226   3.640   4.260 -0.8719  1.9534  2.2544
   29POPC  C316 3883   0.036   3.561   4.221 -0.5880 -0.5180 -0.1927
   29POPC  H16X 3884   0.050   3.483   4.144 -3.0431 -0.3774 -0.8532
   29POPC  H16Y 3885   0.022   3.664   4.180 -2.0834 -0.8509 -0.5792
   29POPC  H16Z 3886  -0.055   3.540   4.281 -2.1879  0.7925 -2.0461
   30POPC     N 3887   1.969   4.645   6.448 -0.9385  0.1121 -0.0630
   30POPC   C12 3888   2.001   4.688   6.308  0.5409  0.5117  0.1797
   30POPC  H12A 3889   2.032   4.596   6.260  1.3243  0.1636  1.3205
   30POPC  H12B 3890   2.084   4.757   6.308 -0.3858  1.6723  0.5965
   30POPC   C13 3891   2.095   4.590   6.509  0.4374 -0.3393  0.1603
   30POPC  H13A 3892   2.085   4.568   6.614 -0.5792  0.5162  0.2619
   30POPC  H13B 3893   2.140   4.499   6.474 -1.2987 -0.3952 -2.2257
   30POPC  H13C 3894   2.170   4.668   6.504 -1.4214  1.5060 -1.4285
   30POPC   C14 3895   1.931   4.767   6.529  0.1272  0.3184  0.2772
   30POPC  H14A 3896   1.904   4.732   6.628 -0.8842  0.2307 -0.0242
   30POPC  H14B 3897   2.009   4.840   6.515 -0.7270  0.5599 -5.4180
   30POPC  H14C 3898   1.839   4.807   6.489  1.0221  1.1474 -1.0083
   30POPC   C15 3899   1.867   4.536   6.456 -0.1858 -0.5840 -0.1206
   30POPC  H15A 3900   1.828   4.522   6.556 -0.7423  0.4823 -0.1711
   30POPC  H15B 3901   1.900   4.446   6.406  0.5435 -0.3278 -0.1153
   30POPC  H15C 3902   1.779   4.563   6.400 -0.0270 -0.3642 -0.2650
   30POPC   C11 3903   1.884   4.757   6.226  0.3917  0.5170 -0.8205
   30POPC  H11A 3904   1.923   4.761   6.122 -1.4131 -1.6449 -1.6812
   30POPC  H11B 3905   1.882   4.862   6.261  0.7213  0.5174 -0.8050
   30POPC     P 3906   1.624   4.754   6.243 -0.0800 -0.1897 -0.6016
   30POPC   O13 3907   1.604   4.811   6.374  0.4441 -0.2344  0.3209
   30POPC   O14 3908   1.520   4.653   6.208 -0.2760  0.1555 -0.1515
   30POPC   O12 3909   1.762   4.679   6.235  0.3230 -0.2641  0.5054
   30POPC   O11 3910   1.629   4.872   6.130  0.1088 -0.0369  0.0506
   30POPC    C1 3911   1.651   4.849   5.989 -0.1811 -0.0422 -0.5450
   30POPC    HA 3912   1.557   4.801   5.953 -1.2838  1.4472  0.2293
   30POPC    HB 3913   1.731   4.774   5.970  1.7946  1.5272  1.1499
   30POPC    C2 3914   1.696   4.972   5.913 -0.7505  0.1651 -0.5973
   30POPC    HS 3915   1.613   5.043   5.933 -2.9550 -2.4675  0.1372
   30POPC   O21 3916   1.714   4.935   5.771  0.3641  0.3766  0.2697
   30POPC   C21 3917   1.733   5.038   5.699 -0.1003 -0.3529 -0.1953
   30POPC   O22 3918   1.722   5.154   5.737  0.2025 -0.1592 -0.2636
   30POPC   C22 3919   1.753   5.010   5.552  0.5891  0.2888  0.9697
   30POPC   H2R 3920   1.662   4.955   5.522  1.4715  0.4895 -2.5129
   30POPC   H2S 3921   1.838   4.941   5.537 -1.3475 -2.4367  1.8107
   30POPC    C3 3922   1.822   5.050   5.983  0.7433 -0.4656  0.1156
   30POPC    HX 3923   1.795   5.052   6.091 -0.8094  1.5884 -0.2526
   30POPC    HY 3924   1.835   5.156   5.954  0.5336  0.0632  1.8293
   30POPC   O31 3925   1.947   4.974   5.967  0.4493 -0.0193  0.0177
   30POPC   C31 3926   2.047   5.040   6.012 -0.8347  0.3002  0.2013
   30POPC   O32 3927   2.045   5.152   6.053 -0.8381  0.0466  0.8743
   30POPC   C32 3928   2.178   4.959   6.007  0.2825  0.2705 -0.5146
   30POPC   H2X 3929   2.151   4.855   5.980  0.6396 -0.2458  1.0124
   30POPC   H2Y 3930   2.215   4.956   6.112 -3.1889  0.6675  0.8835
   30POPC   C23 3931   1.763   5.143   5.472  0.1210 -0.1646  0.2870
   30POPC   H3R 3932   1.836   5.216   5.513 -1.0773  0.9225  0.5331
   30POPC   H3S 3933   1.663   5.190   5.480 -1.0783 -2.4294 -0.4366
   30POPC   C24 3934   1.793   5.131   5.322  0.3944 -0.6273 -0.2890
   30POPC   H4R 3935   1.716   5.058   5.289 -1.8081  1.6587 -0.5534
   30POPC   H4S 3936   1.892   5.085   5.301  0.3547  0.4482 -3.4045
   30POPC   C25 3937   1.769   5.273   5.257  0.3465  0.3383  0.1157
   30POPC   H5R 3938   1.851   5.336   5.298  1.2799 -1.0695  0.4873
   30POPC   H5S 3939   1.671   5.316   5.286 -0.4300 -0.5321 -1.1148
   30POPC   C26 3940   1.760   5.258   5.106 -0.4854 -0.4597  0.0140
   30POPC   H6R 3941   1.721   5.359   5.079 -0.6421  0.0072  1.8749
   30POPC   H6S 3942   1.683   5.182   5.083 -0.0377 -0.2780 -2.2869
   30POPC   C27 3943   1.890   5.243   5.029 -0.2097  0.8619  0.1893
   30POPC   H7R 3944   1.911   5.137   5.004 -2.2575  0.7817 -1.4352
   30POPC   H7S 3945   1.966   5.282   5.101 -0.2855  0.6766  0.3703
   30POPC   C28 3946   1.895   5.313   4.893 -0.7116 -0.6129  1.3338
   30POPC   H8R 3947   1.882   5.423   4.895  0.5873 -0.3005 -1.5396
   30POPC   H8S 3948   1.803   5.276   4.842 -1.1168 -1.9923  3.0007
   30POPC   C29 3949   2.018   5.276   4.820  0.2447 -0.4218  0.6700
   30POPC   H91 3950   2.110   5.334   4.836 -0.1519 -0.1005  1.8519
   30POPC  C210 3951   2.017   5.182   4.719  0.2234 -0.4632  0.9500
   30POPC  H101 3952   2.108   5.175   4.657 -0.1534 -6.2390  0.5325
   30POPC  C211 3953   1.895   5.100   4.668  0.1853 -0.3977  0.4190
   30POPC  H11R 3954   1.846   5.161   4.589  0.2553  0.9244  1.3512
   30POPC  H11S 3955   1.820   5.089   4.749  0.5629 -2.5513  0.5367
   30POPC  C212 3956   1.919   4.957   4.610 -0.0174 -0.4463  0.3631
   30POPC  H12R 3957   1.828   4.894   4.620 -0.8604  0.4253 -1.3756
   30POPC  H12S 3958   2.004   4.901   4.655  1.3073 -0.9398 -2.5328
   30POPC  C213 3959   1.946   4.967   4.458  0.1513 -0.1619  0.7184
   30POPC  H13R 3960   2.038   5.028   4.449 -0.3162  0.3102 -1.4262
   30POPC  H13S 3961   1.875   5.022   4.393  1.8446 -0.4900 -1.5215
   30POPC  C214 3962   1.971   4.831   4.389  0.0476 -0.2213  0.0396
   30POPC  H14R 3963   1.993   4.852   4.282  1.9864  0.1378  0.4710
   30POPC  H14S 3964   1.872   4.782   4.388 -0.9302  1.6167  1.2374
   30POPC  C215 3965   2.070   4.740   4.465  1.2569  0.1377  0.2349
   30POPC  H15R 3966   2.021   4.693   4.553  0.0603 -0.3151 -0.6535
   30POPC  H15S 3967   2.159   4.796   4.502 -0.5001  3.5171 -0.2507
   30POPC  C216 3968   2.102   4.615   4.374  0.2616 -0.1784 -0.5807
   30POPC  H16R 3969   2.002   4.589   4.334  0.3703  0.7629 -1.4935
   30POPC  H16S 3970   2.140   4.532   4.438  1.4087  0.4335 -0.4436
   30POPC  C217 3971   2.190   4.647   4.256  0.0373  0.3018  0.3739
   30POPC  H17R 3972   2.290   4.671   4.298  0.1345  0.1011  0.2642
   30POPC  H17S 3973   2.142   4.737   4.211  1.8086  1.0286 -0.1765
   30POPC  C218 3974   2.194   4.533   4.157 -0.1203  0.2258  0.6390
   30POPC  H18R 3975   2.095   4.503   4.117  0.0276  0.3491  0.1715
   30POPC  H18S 3976   2.246   4.447   4.204 -1.0668 -2.3340 -2.6046
   30POPC  H18T 3977   2.256   4.550   4.067  0.6525  0.7326  1.2526
   30POPC   C33 3978   2.263   5.026   5.897 -0.5152 -0.1859 -0.0277
   30POPC   H3X 3979   2.275   5.131   5.930 -0.7198 -0.4796  1.0131
   30POPC   H3Y 3980   2.218   5.020   5.796  0.1818 -0.2724 -0.3409
   30POPC   C34 3981   2.398   4.957   5.887  0.8089 -0.2682  0.4948
   30POPC   H4X 3982   2.382   4.848   5.875 -1.1032  0.0544 -0.2990
   30POPC   H4Y 3983   2.457   4.969   5.980 -1.7506  0.0499  2.1924
   30POPC   C35 3984   2.479   5.003   5.760  0.0290  0.5198 -0.4075
   30POPC   H5X 3985   2.430   4.968   5.667  1.9707 -1.7231 -0.7118
   30POPC   H5Y 3986   2.581   4.959   5.767  0.9881  2.7774  0.8039
   30POPC   C36 3987   2.503   5.150   5.769  0.3118 -0.1226 -0.2702
   30POPC   H6X 3988   2.568   5.173   5.856  1.9945 -0.6695 -1.3329
   30POPC   H6Y 3989   2.408   5.206   5.779  0.0389 -0.8941  1.9223
   30POPC   C37 3990   2.565   5.198   5.642  0.9545 -0.0520  0.2050
   30POPC   H7X 3991   2.484   5.187   5.567 -1.1922  1.2047  2.2025
   30POPC   H7Y 3992   2.653   5.134   5.624  1.4520  0.2378  1.4597
   30POPC   C38 3993   2.609   5.342   5.637 -0.9482 -0.3223  0.4406
   30POPC   H8X 3994   2.713   5.359   5.671 -1.9500  3.0186  2.3799
   30POPC   H8Y 3995   2.549   5.402   5.710 -0.1150  1.9719 -0.6865
   30POPC   C39 3996   2.593   5.401   5.488  0.0483 -0.3273 -0.7341
   30POPC   H9X 3997   2.636   5.504   5.487 -1.8393  0.5108  0.1946
   30POPC   H9Y 3998   2.484   5.414   5.470  0.0354  0.3196 -0.2426
   30POPC  C310 3999   2.657   5.325   5.368  0.0246 -0.0264 -0.6187
   30POPC  H10X 4000   2.600   5.230   5.359  0.4345 -0.5185  1.4979
   30POPC  H10Y 4001   2.765   5.305   5.386 -0.1424  0.9480  1.6788
   30POPC  C311 4002   2.630   5.403   5.237 -0.7901 -0.1351  0.2617
   30POPC  H11X 4003   2.705   5.371   5.162  1.3410  0.2813  2.0886
   30POPC  H11Y 4004   2.654   5.511   5.250  3.6148 -0.5492 -2.3116
   30POPC  C312 4005   2.492   5.387   5.175  0.0432  0.1116 -0.1810
   30POPC  H12X 4006   2.409   5.396   5.249 -1.5752 -1.9690 -1.6357
   30POPC  H12Y 4007   2.495   5.279   5.152  0.8834 -0.5991  2.8299
   30POPC  C313 4008   2.463   5.488   5.064  0.5578 -0.2809 -0.4980
   30POPC  H13X 4009   2.487   5.587   5.108  1.7417 -0.7546 -0.0483
   30POPC  H13Y 4010   2.356   5.489   5.035  0.4041  0.4852  0.0649
   30POPC  C314 4011   2.553   5.474   4.938  0.0928  0.1808  0.2405
   30POPC  H14X 4012   2.543   5.366   4.914 -0.5949  0.4388 -0.6734
   30POPC  H14Y 4013   2.658   5.508   4.947 -0.5932  2.3456  0.7836
   30POPC  C315 4014   2.491   5.547   4.817 -0.3165  0.1640 -0.1415
   30POPC  H15X 4015   2.506   5.655   4.836 -1.6276  0.7334 -2.0887
   30POPC  H15Y 4016   2.385   5.516   4.810 -0.3775  0.4094 -0.3139
   30POPC  C316 4017   2.542   5.529   4.682 -0.6708 -0.0712  0.8678
   30POPC  H16X 4018   2.478   5.576   4.604 -0.9277 -1.8163 -0.0233
   30POPC  H16Y 4019   2.527   5.429   4.635  0.7376  0.8897 -1.8009
   30POPC  H16Z 4020   2.648   5.555   4.664 -1.1774  0.4073 -1.8128
   31POPC     N 4021   2.852   1.060   6.065 -0.0543 -0.1690 -0.4462
   31POPC   C12 4022   2.957   0.965   6.105 -0.0290  0.0375  0.4550
   31POPC  H12A 4023   3.037   1.024   6.148  3.1625 -2.5490 -1.3692
   31POPC  H12B 4024   3.007   0.925   6.017  0.5590 -1.3884  1.3813
   31POPC   C13 4025   2.798   1.134   6.184 -0.1887 -0.1468  0.6151
   31POPC  H13A 4026   2.855   1.221   6.214 -2.7667  2.6544 -1.8986
   31POPC  H13B 4027   2.695   1.165   6.176  0.2889  1.2860 -0.3761
   31POPC  H13C 4028   2.790   1.065   6.267 -3.5467  0.7564  1.2200
   31POPC   C14 4029   2.898   1.153   5.957  0.0913 -1.1202 -0.0058
   31POPC  H14A 4030   3.002   1.174   5.977  0.5134 -2.9490 -0.1517
   31POPC  H14B 4031   2.894   1.108   5.859 -0.8650 -1.2951  0.0995
   31POPC  H14C 4032   2.850   1.250   5.957  0.7225 -0.7781 -1.6687
   31POPC   C15 4033   2.727   0.997   6.006 -0.6016 -0.2336  0.1571
   31POPC  H15A 4034   2.693   0.916   6.070  0.5476 -0.7163  0.1877
   31POPC  H15B 4035   2.740   0.969   5.903  1.0836  1.3720 -0.1133
   31POPC  H15C 4036   2.648   1.070   6.004  0.9870  1.6321  1.7944
   31POPC   C11 4037   2.918   0.847   6.200 -0.2934  0.0068  0.1074
   31POPC  H11A 4038   3.016   0.796   6.215  0.3828  1.1938 -0.0758
   31POPC  H11B 4039   2.851   0.782   6.140  1.6658 -1.4986 -0.5661
   31POPC     P 4040   2.745   0.832   6.399  0.0760  0.1183  0.1632
   31POPC   O13 4041   2.669   0.931   6.476  0.2927  0.0829 -0.3691
   31POPC   O14 4042   2.801   0.712   6.470  0.5189  0.0679 -0.1765
   31POPC   O12 4043   2.870   0.897   6.326 -0.1526 -0.2145 -0.5683
   31POPC   O11 4044   2.648   0.782   6.277  0.1924 -0.2819  0.2814
   31POPC    C1 4045   2.575   0.662   6.316  0.4373 -0.0440  0.4614
   31POPC    HA 4046   2.531   0.670   6.418  1.5671  0.0173  0.9498
   31POPC    HB 4047   2.632   0.569   6.297 -2.4807 -1.5734 -1.6785
   31POPC    C2 4048   2.443   0.641   6.225 -0.6722 -0.2985 -0.2597
   31POPC    HS 4049   2.367   0.571   6.265 -2.6226  2.5656  1.3903
   31POPC   O21 4050   2.481   0.610   6.091 -0.2638 -0.0945 -0.0731
   31POPC   C21 4051   2.503   0.480   6.069  0.8187 -0.3453 -0.4299
   31POPC   O22 4052   2.470   0.390   6.146  0.2587 -0.4078 -0.0239
   31POPC   C22 4053   2.591   0.472   5.935 -0.4085 -0.7662  0.2597
   31POPC   H2R 4054   2.696   0.449   5.962 -0.8511 -2.8558  0.3549
   31POPC   H2S 4055   2.591   0.572   5.886 -1.3095 -0.6261  0.5211
   31POPC    C3 4056   2.369   0.773   6.207  0.2591 -0.3211  0.3333
   31POPC    HX 4057   2.452   0.845   6.193 -0.3552  0.2964 -0.2486
   31POPC    HY 4058   2.308   0.806   6.294 -2.4358  0.1054 -1.5700
   31POPC   O31 4059   2.266   0.774   6.105 -0.4761 -0.1518  1.0099
   31POPC   C31 4060   2.301   0.803   5.984 -0.3964  0.1473  0.5217
   31POPC   O32 4061   2.401   0.868   5.946  0.1282 -0.1547  0.3683
   31POPC   C32 4062   2.203   0.736   5.892 -0.1896 -0.2192 -0.3092
   31POPC   H2X 4063   2.110   0.797   5.893 -0.3888 -0.5212 -0.2816
   31POPC   H2Y 4064   2.176   0.642   5.945  0.2631 -1.2877 -1.8810
   31POPC   C23 4065   2.547   0.365   5.837  0.2215 -0.5022  0.1985
   31POPC   H3R 4066   2.440   0.367   5.807 -0.0521 -2.2296  0.9508
   31POPC   H3S 4067   2.565   0.265   5.882  0.6336 -0.5081  0.0343
   31POPC   C24 4068   2.620   0.357   5.703  0.2729 -0.2302 -0.2436
   31POPC   H4R 4069   2.580   0.276   5.638  0.8056 -0.6070 -0.1119
   31POPC   H4S 4070   2.726   0.346   5.734  0.0569 -1.8122  0.0205
   31POPC   C25 4071   2.607   0.483   5.610  0.6956 -0.7786  0.3574
   31POPC   H5R 4072   2.636   0.573   5.668 -2.2553 -1.2590  2.8288
   31POPC   H5S 4073   2.497   0.492   5.597  0.7003 -0.4274  0.5434
   31POPC   C26 4074   2.694   0.468   5.480  0.0398  0.9658  0.3401
   31POPC   H6R 4075   2.707   0.362   5.450 -0.5423  1.1388 -0.5750
   31POPC   H6S 4076   2.796   0.510   5.491  0.6390 -0.0166 -1.1960
   31POPC   C27 4077   2.631   0.538   5.368 -0.6087  0.5356  0.0491
   31POPC   H7R 4078   2.590   0.636   5.402 -1.4268  0.3915 -0.4774
   31POPC   H7S 4079   2.550   0.475   5.324 -1.2648  1.6032 -0.3063
   31POPC   C28 4080   2.715   0.566   5.238  0.6133 -0.2958 -0.8051
   31POPC   H8R 4081   2.749   0.468   5.196 -0.1820 -0.2033 -1.6994
   31POPC   H8S 4082   2.797   0.630   5.277  0.9620 -0.1714 -1.7132
   31POPC   C29 4083   2.636   0.650   5.133 -0.5659 -0.1333  0.4679
   31POPC   H91 4084   2.583   0.741   5.165 -0.4853  0.5984 -1.3745
   31POPC  C210 4085   2.640   0.625   5.001 -0.3182 -0.1636  0.7882
   31POPC  H101 4086   2.590   0.690   4.927  1.2178  0.6054  0.3884
   31POPC  C211 4087   2.698   0.506   4.944 -0.7061 -0.5498 -0.2632
   31POPC  H11R 4088   2.798   0.497   4.992  0.3214  0.9607 -1.9837
   31POPC  H11S 4089   2.725   0.538   4.840  2.7832  1.4743  1.0736
   31POPC  C212 4090   2.601   0.387   4.957  0.1726  0.2164 -0.0033
   31POPC  H12R 4091   2.503   0.431   4.930  0.0014  1.4557  2.3164
   31POPC  H12S 4092   2.594   0.353   5.063 -1.3034  1.6294  0.3854
   31POPC  C213 4093   2.658   0.267   4.874  0.8193  0.1642 -1.1149
   31POPC  H13R 4094   2.670   0.289   4.765  0.6113  0.4266 -1.0844
   31POPC  H13S 4095   2.581   0.188   4.885 -0.6189  1.6834  0.4010
   31POPC  C214 4096   2.798   0.218   4.925 -0.2070 -0.1388  0.3917
   31POPC  H14R 4097   2.802   0.207   5.035 -0.1729  2.1883  0.6568
   31POPC  H14S 4098   2.883   0.283   4.896  0.9960 -1.4071  0.9124
   31POPC  C215 4099   2.812   0.072   4.877 -0.0858 -0.4594  0.3664
   31POPC  H15R 4100   2.830   0.082   4.768  1.1321 -0.6058  0.5440
   31POPC  H15S 4101   2.730  -0.001   4.897 -1.0247  0.6373  0.6657
   31POPC  C216 4102   2.944   0.012   4.925  0.1362 -1.0221 -0.6758
   31POPC  H16R 4103   2.949   0.019   5.036 -0.7081 -2.1253 -0.5449
   31POPC  H16S 4104   3.026   0.066   4.874 -1.2155  1.7179 -0.1812
   31POPC  C217 4105   2.977  -0.137   4.879 -0.3728 -0.3147  0.0645
   31POPC  H17R 4106   2.889  -0.199   4.910 -0.6889  0.4386  0.6996
   31POPC  H17S 4107   3.065  -0.153   4.945 -1.1596  0.2928  1.2971
   31POPC  C218 4108   2.991  -0.169   4.731  0.2267  0.2186  0.1271
   31POPC  H18R 4109   3.051  -0.262   4.715 -1.6544 -0.9102 -0.7553
   31POPC  H18S 4110   3.038  -0.092   4.666  1.1084  0.7560  1.3688
   31POPC  H18T 4111   2.889  -0.188   4.692  0.2047  2.4985 -1.0646
   31POPC   C33 4112   2.251   0.704   5.744 -0.2252 -0.3137 -0.2574
   31POPC   H3X 4113   2.356   0.667   5.740 -0.3534 -0.5345 -2.1127
   31POPC   H3Y 4114   2.237   0.798   5.687  0.3172 -0.1683 -0.1601
   31POPC   C34 4115   2.167   0.595   5.682 -0.1568 -0.2207 -0.5795
   31POPC   H4X 4116   2.059   0.621   5.676  0.3882  1.9794 -3.4359
   31POPC   H4Y 4117   2.174   0.501   5.741  1.2325 -0.9318 -1.8281
   31POPC   C35 4118   2.214   0.551   5.542 -1.0078 -0.0568  0.4331
   31POPC   H5X 4119   2.304   0.486   5.549  0.2979  1.7001  0.6513
   31POPC   H5Y 4120   2.245   0.644   5.491 -1.8850  1.1671  2.0487
   31POPC   C36 4121   2.090   0.497   5.467 -0.4066 -0.4759  0.2185
   31POPC   H6X 4122   2.023   0.579   5.432 -1.9930 -0.5976  2.7496
   31POPC   H6Y 4123   2.034   0.428   5.533 -0.0883 -0.3680  0.6105
   31POPC   C37 4124   2.131   0.423   5.341 -0.2977 -0.2220 -0.1002
   31POPC   H7X 4125   2.037   0.403   5.285 -0.4720 -0.8619  0.4082
   31POPC   H7Y 4126   2.163   0.321   5.372 -0.0036 -0.2134 -0.3765
   31POPC   C38 4127   2.218   0.499   5.247  0.9754 -0.0229 -0.3038
   31POPC   H8X 4128   2.246   0.434   5.161  0.5941 -0.9899  0.2782
   31POPC   H8Y 4129   2.312   0.533   5.294  0.5982  2.3938 -1.1436
   31POPC   C39 4130   2.144   0.612   5.171 -0.3484  0.0387 -0.8475
   31POPC   H9X 4131   2.110   0.682   5.250 -0.5707  0.2259 -1.1078
   31POPC   H9Y 4132   2.057   0.563   5.124 -0.6567 -0.8417  0.5742
   31POPC  C310 4133   2.245   0.677   5.076 -0.3997 -0.2882 -0.8914
   31POPC  H10X 4134   2.296   0.596   5.020 -1.2877 -1.4555 -0.0696
   31POPC  H10Y 4135   2.331   0.721   5.131 -0.0722 -0.4630 -1.2568
   31POPC  C311 4136   2.185   0.777   4.976  0.6095 -1.2203 -0.3882
   31POPC  H11X 4137   2.161   0.869   5.033  0.6689 -1.1653 -0.4533
   31POPC  H11Y 4138   2.088   0.743   4.935  0.6779 -1.2396 -0.5322
   31POPC  C312 4139   2.285   0.827   4.870  0.5758 -0.6877  0.1209
   31POPC  H12X 4140   2.330   0.745   4.810 -0.7816 -0.5110 -1.2165
   31POPC  H12Y 4141   2.363   0.877   4.932  0.8364  0.3028 -0.9684
   31POPC  C313 4142   2.232   0.924   4.773  0.1741  0.0287 -0.1417
   31POPC  H13X 4143   2.198   1.014   4.830  2.9203  2.0352 -1.4079
   31POPC  H13Y 4144   2.144   0.884   4.718 -0.3606 -1.2774  1.5655
   31POPC  C314 4145   2.332   0.972   4.664 -0.4694 -0.0975  0.2568
   31POPC  H14X 4146   2.349   0.896   4.585  2.4553 -0.9398  1.5689
   31POPC  H14Y 4147   2.439   0.974   4.694 -0.1251  2.6016 -0.8257
   31POPC  C315 4148   2.284   1.107   4.600  0.2374  0.1422  0.5028
   31POPC  H15X 4149   2.293   1.186   4.678 -1.2377 -0.9849  1.8785
   31POPC  H15Y 4150   2.177   1.092   4.572  0.7875  1.5132 -2.8579
   31POPC  C316 4151   2.370   1.135   4.478 -0.5055 -0.0937  0.3446
   31POPC  H16X 4152   2.465   1.185   4.509 -0.5281  0.6684 -0.7540
   31POPC  H16Y 4153   2.315   1.194   4.402 -1.2865  0.5579  1.3907
   31POPC  H16Z 4154   2.395   1.037   4.432 -0.0358 -0.3685  1.1713
   32POPC     N 4155   6.147   3.150   6.614 -0.3736 -0.3827 -0.2886
   32POPC   C12 4156   6.082   3.101   6.487 -0.1196 -0.4084 -0.0530
   32POPC  H12A 4157   5.977   3.085   6.508 -0.0492  0.4939  1.1271
   32POPC  H12B 4158   6.134   3.011   6.459 -1.3245 -1.4788  1.0202
   32POPC   C13 4159   6.293   3.175   6.603 -0.1909 -0.2305  0.2059
   32POPC  H13A 4160   6.343   3.086   6.567 -2.1058 -1.7174  1.0965
   32POPC  H13B 4161   6.303   3.258   6.534  0.6569 -0.6342 -0.1705
   32POPC  H13C 4162   6.329   3.209   6.699 -0.5165  1.3901 -0.2200
   32POPC   C14 4163   6.093   3.283   6.666  0.8093 -0.1521  0.1535
   32POPC  H14A 4164   6.092   3.362   6.592  0.3320  0.0688  0.3927
   32POPC  H14B 4165   5.988   3.264   6.683 -0.4754  1.1063 -4.6682
   32POPC  H14C 4166   6.138   3.319   6.757 -1.1849 -0.4845  1.3370
   32POPC   C15 4167   6.125   3.045   6.716 -0.0273 -0.5480 -0.4630
   32POPC  H15A 4168   6.023   3.045   6.750 -0.2282  0.7781 -1.0166
   32POPC  H15B 4169   6.183   3.050   6.807  1.0266 -2.7048 -0.9439
   32POPC  H15C 4170   6.137   2.942   6.686 -0.8739 -0.2094 -2.1236
   32POPC   C11 4171   6.088   3.193   6.368 -0.3073  0.6450 -0.7237
   32POPC  H11A 4172   6.030   3.140   6.290 -0.2780  1.2161 -1.1442
   32POPC  H11B 4173   6.196   3.198   6.341  0.1559 -1.7181  0.4532
   32POPC     P 4174   6.047   3.443   6.326  0.0997 -0.2109  0.2767
   32POPC   O13 4175   6.192   3.467   6.326 -0.4727  0.0975  0.3177
   32POPC   O14 4176   5.962   3.553   6.387 -0.2104  0.5770  0.1625
   32POPC   O12 4177   6.022   3.316   6.407  0.0376  0.1554 -0.9653
   32POPC   O11 4178   5.992   3.416   6.182  0.5909 -0.2655 -0.0868
   32POPC    C1 4179   5.856   3.380   6.149  0.0427  0.6934 -0.8181
   32POPC    HA 4180   5.805   3.462   6.094  1.2055  1.5855 -0.6080
   32POPC    HB 4181   5.801   3.359   6.244  3.3334 -0.6122  0.9512
   32POPC    C2 4182   5.860   3.253   6.060 -0.3228 -0.6405  0.8428
   32POPC    HS 4183   5.914   3.175   6.119  0.1056 -1.5914 -0.7586
   32POPC   O21 4184   5.923   3.288   5.934  0.2859  0.4841 -0.2276
   32POPC   C21 4185   5.946   3.194   5.847  0.1483  1.3154 -0.2298
   32POPC   O22 4186   5.908   3.080   5.864 -0.1076  0.5940  0.0980
   32POPC   C22 4187   6.036   3.251   5.737  0.1523  0.4365  0.3740
   32POPC   H2R 4188   6.142   3.225   5.759  0.3604  1.4598  0.6332
   32POPC   H2S 4189   6.028   3.361   5.748 -1.0051  0.2552  1.8074
   32POPC    C3 4190   5.716   3.199   6.042 -0.4253  0.2286  0.1703
   32POPC    HX 4191   5.700   3.140   6.135  0.9356  0.7223  0.7341
   32POPC    HY 4192   5.714   3.120   5.964 -1.7055  1.7274 -1.4178
   32POPC   O31 4193   5.608   3.294   6.007 -0.1573  0.1446  0.3751
   32POPC   C31 4194   5.486   3.239   6.006  0.2675  0.5206 -0.3101
   32POPC   O32 4195   5.467   3.119   6.027  0.4049 -0.4291 -0.0970
   32POPC   C32 4196   5.370   3.339   5.988 -0.1554  0.2434  0.2240
   32POPC   H2X 4197   5.409   3.443   5.981  2.0304 -0.4484  1.4308
   32POPC   H2Y 4198   5.302   3.333   6.076 -1.5392  0.8187 -0.7687
   32POPC   C23 4199   5.997   3.202   5.594 -0.3299  0.1431  0.3402
   32POPC   H3R 4200   5.997   3.091   5.583  1.6512  0.2394 -1.0475
   32POPC   H3S 4201   6.080   3.232   5.527 -1.4604  1.1211 -0.6720
   32POPC   C24 4202   5.885   3.278   5.527  0.2424  0.2586 -0.4925
   32POPC   H4R 4203   5.881   3.388   5.540  4.8716  0.6105 -0.3198
   32POPC   H4S 4204   5.794   3.245   5.583  0.8731  1.4871  1.3365
   32POPC   C25 4205   5.881   3.256   5.378  0.0612 -0.3731  0.4689
   32POPC   H5R 4206   5.819   3.166   5.355 -2.5846  1.0678  1.5376
   32POPC   H5S 4207   5.982   3.244   5.334  0.3542  3.9091 -0.4363
   32POPC   C26 4208   5.818   3.374   5.299 -0.0178  0.1655  0.2131
   32POPC   H6R 4209   5.855   3.465   5.351 -2.8415  1.4902  0.0445
   32POPC   H6S 4210   5.708   3.387   5.301 -0.0935  0.0724 -1.7920
   32POPC   C27 4211   5.840   3.366   5.149  0.2388  0.0410 -0.2534
   32POPC   H7R 4212   5.949   3.381   5.131 -0.1694  2.5020 -0.9608
   32POPC   H7S 4213   5.792   3.455   5.104  0.5207  1.5971  2.3279
   32POPC   C28 4214   5.799   3.237   5.079  0.1368  0.0489  0.0020
   32POPC   H8R 4215   5.843   3.150   5.133  0.6055 -1.0954 -2.0799
   32POPC   H8S 4216   5.847   3.236   4.978  2.4137  1.8425  0.9717
   32POPC   C29 4217   5.652   3.214   5.070  0.2544  0.3142  0.4726
   32POPC   H91 4218   5.591   3.245   5.157  1.3319 -1.5677  1.9963
   32POPC  C210 4219   5.584   3.139   4.978  0.0739  0.1481 -0.3803
   32POPC  H101 4220   5.474   3.141   4.983  0.1399  1.5285  1.1210
   32POPC  C211 4221   5.640   3.066   4.862 -0.0111  0.1754 -0.0783
   32POPC  H11R 4222   5.747   3.059   4.890  0.9763  2.3186 -2.8282
   32POPC  H11S 4223   5.614   3.121   4.769 -0.4581 -0.5620 -0.4026
   32POPC  C212 4224   5.592   2.914   4.838  0.0532 -0.6404 -0.0997
   32POPC  H12R 4225   5.607   2.892   4.730  0.9546 -0.4972 -0.0093
   32POPC  H12S 4226   5.486   2.897   4.869  0.4814 -2.0481  0.6346
   32POPC  C213 4227   5.677   2.806   4.913  0.3402  0.1851 -0.0072
   32POPC  H13R 4228   5.786   2.827   4.914  0.6599 -0.9581  3.2403
   32POPC  H13S 4229   5.673   2.708   4.860  1.1898 -0.1531  0.5138
   32POPC  C214 4230   5.628   2.781   5.058  0.3721 -0.0227  0.5434
   32POPC  H14R 4231   5.520   2.809   5.059  0.2108 -0.5790 -0.1680
   32POPC  H14S 4232   5.675   2.856   5.125 -1.0083 -0.8565  2.5673
   32POPC  C215 4233   5.647   2.648   5.132 -0.3418  0.6981  0.1536
   32POPC  H15R 4234   5.619   2.565   5.064  0.6128 -3.1556  3.9963
   32POPC  H15S 4235   5.582   2.639   5.221 -0.5554 -1.3081 -0.1518
   32POPC  C216 4236   5.796   2.611   5.162  0.2704 -0.2507  0.1800
   32POPC  H16R 4237   5.844   2.707   5.190 -2.6103  0.3596  3.7498
   32POPC  H16S 4238   5.839   2.567   5.070 -1.8821 -3.2083  0.4382
   32POPC  C217 4239   5.813   2.514   5.275  0.1962  0.3717  0.6318
   32POPC  H17R 4240   5.763   2.549   5.367  1.1007 -1.7811  2.0296
   32POPC  H17S 4241   5.919   2.507   5.310  0.5141 -2.0161 -0.6254
   32POPC  C218 4242   5.752   2.375   5.242 -0.0892  0.0359  0.1941
   32POPC  H18R 4243   5.832   2.313   5.197  0.0458  1.1729 -1.2354
   32POPC  H18S 4244   5.664   2.386   5.174  1.3151 -1.1668 -1.9227
   32POPC  H18T 4245   5.717   2.331   5.338  0.5720  0.2505  0.5334
   32POPC   C33 4246   5.278   3.308   5.862 -0.3174  0.1048  0.4289
   32POPC   H3X 4247   5.174   3.342   5.882 -0.5562  0.5623 -1.4239
   32POPC   H3Y 4248   5.272   3.199   5.845  1.6513  0.2022 -1.2210
   32POPC   C34 4249   5.334   3.367   5.734  0.0603 -0.1524  0.5511
   32POPC   H4X 4250   5.437   3.326   5.730 -0.1643 -0.8449  1.5773
   32POPC   H4Y 4251   5.326   3.478   5.742  1.1465  0.0215 -0.4929
   32POPC   C35 4252   5.262   3.332   5.598  0.4815 -0.1012 -0.9936
   32POPC   H5X 4253   5.165   3.385   5.606  0.3889 -0.5168  1.7754
   32POPC   H5Y 4254   5.240   3.223   5.595  2.8828 -0.6252 -2.3123
   32POPC   C36 4255   5.330   3.384   5.475  0.6390  0.4126  0.0448
   32POPC   H6X 4256   5.431   3.341   5.461  0.2575 -0.1947 -1.0085
   32POPC   H6Y 4257   5.342   3.492   5.499  1.7607  0.0243  1.3033
   32POPC   C37 4258   5.254   3.386   5.346  0.2725 -0.2387  0.1265
   32POPC   H7X 4259   5.166   3.454   5.353  0.4237  0.3627 -2.7241
   32POPC   H7Y 4260   5.203   3.290   5.322 -1.2935  0.1246  1.7693
   32POPC   C38 4261   5.339   3.435   5.227  0.3324  0.2797 -0.0151
   32POPC   H8X 4262   5.436   3.385   5.207  0.6669  1.5944 -1.9506
   32POPC   H8Y 4263   5.363   3.542   5.245 -1.7176  0.7101  0.3543
   32POPC   C39 4264   5.251   3.433   5.098 -0.4965 -0.0463  0.2519
   32POPC   H9X 4265   5.147   3.465   5.121 -1.2911 -2.7212  0.7371
   32POPC   H9Y 4266   5.226   3.334   5.055 -2.0520  0.1970  0.5371
   32POPC  C310 4267   5.316   3.532   4.995 -0.2037 -0.0449  0.3658
   32POPC  H10X 4268   5.321   3.632   5.044  0.3573  1.9094 -3.3182
   32POPC  H10Y 4269   5.246   3.537   4.909 -0.0513  0.3405  0.2617
   32POPC  C311 4270   5.452   3.489   4.940  0.1025 -0.4855 -0.3712
   32POPC  H11X 4271   5.445   3.383   4.906 -0.1324 -0.6603  0.2036
   32POPC  H11Y 4272   5.532   3.504   5.016  0.9989 -0.8940 -1.2184
   32POPC  C312 4273   5.512   3.569   4.825  1.0702 -0.1399 -1.0806
   32POPC  H12X 4274   5.441   3.593   4.743  2.1527 -2.2212 -2.7331
   32POPC  H12Y 4275   5.593   3.512   4.776  0.7241  0.9371 -3.0337
   32POPC  C313 4276   5.576   3.704   4.858 -0.2790  0.7863  0.4236
   32POPC  H13X 4277   5.664   3.684   4.923 -0.9242 -2.5850  0.4136
   32POPC  H13Y 4278   5.505   3.767   4.916  0.2741  2.1095 -0.2728
   32POPC  C314 4279   5.623   3.782   4.733  0.7955 -0.4023  0.4536
   32POPC  H14X 4280   5.531   3.807   4.677 -0.4539 -1.7028  1.8537
   32POPC  H14Y 4281   5.691   3.717   4.674  0.3914  0.6245 -1.2224
   32POPC  C315 4282   5.704   3.906   4.769 -0.3125 -0.4677  0.6052
   32POPC  H15X 4283   5.744   3.957   4.678 -1.8185  1.2269  0.8193
   32POPC  H15Y 4284   5.785   3.860   4.829 -0.1162 -0.4659  0.3424
   32POPC  C316 4285   5.620   4.011   4.836 -1.1126  1.2123  0.4497
   32POPC  H16X 4286   5.549   4.068   4.773 -0.7913  2.1968  0.9601
   32POPC  H16Y 4287   5.684   4.093   4.873  1.2737  0.2375 -1.2813
   32POPC  H16Z 4288   5.561   3.976   4.924  0.4411 -0.2082  0.9750
   33POPC     N 4289   0.832   2.024   5.909  0.1877 -0.2972  0.1204
   33POPC   C12 4290   0.740   1.981   6.016  0.2015 -0.0382  0.0700
   33POPC  H12A 4291   0.760   1.879   6.044  1.2669 -0.2538 -1.3734
   33POPC  H12B 4292   0.640   1.986   5.975 -0.3283 -1.0966  1.1651
   33POPC   C13 4293   0.975   2.006   5.967 -0.1843 -0.0436 -0.2917
   33POPC  H13A 4294   1.003   1.909   6.004 -0.5366 -0.8095 -1.9148
   33POPC  H13B 4295   1.046   2.030   5.889  1.9730  0.7603  1.8179
   33POPC  H13C 4296   0.987   2.081   6.043 -3.8032  1.2174 -0.7647
   33POPC   C14 4297   0.818   1.931   5.793  0.4571  0.1315 -0.1969
   33POPC  H14A 4298   0.716   1.926   5.758  0.4731  1.4775 -0.4675
   33POPC  H14B 4299   0.884   1.963   5.713  0.4964  0.0452 -0.1992
   33POPC  H14C 4300   0.845   1.830   5.819  0.2344  0.1427  0.0795
   33POPC   C15 4301   0.809   2.169   5.871  0.5898 -0.2166  0.2811
   33POPC  H15A 4302   0.804   2.223   5.964  4.3258 -0.4908  0.7798
   33POPC  H15B 4303   0.711   2.181   5.826  1.0243 -2.3951 -1.4385
   33POPC  H15C 4304   0.886   2.207   5.807  1.8283 -0.3533  1.6349
   33POPC   C11 4305   0.731   2.071   6.147 -0.8467  0.5267 -0.1396
   33POPC  H11A 4306   0.824   2.050   6.204 -1.7234 -0.9834  0.8015
   33POPC  H11B 4307   0.664   2.021   6.220  0.0388  0.2770  0.5200
   33POPC     P 4308   0.566   2.269   6.146 -0.1463  0.0020  0.1402
   33POPC   O13 4309   0.573   2.415   6.128  0.5080  0.0698  0.4391
   33POPC   O14 4310   0.510   2.220   6.279 -0.0690 -0.1170  0.0929
   33POPC   O12 4311   0.709   2.211   6.127  0.1415 -0.1266 -0.1992
   33POPC   O11 4312   0.482   2.192   6.037  0.4194 -1.1971  0.2953
   33POPC    C1 4313   0.431   2.264   5.918  1.2944 -0.2516 -0.1296
   33POPC    HA 4314   0.513   2.317   5.864  0.7495 -0.5019 -1.2322
   33POPC    HB 4315   0.361   2.346   5.944  0.3931 -0.4627 -1.7467
   33POPC    C2 4316   0.347   2.169   5.818 -0.6006 -0.0099  0.0374
   33POPC    HS 4317   0.289   2.110   5.891  1.1296 -0.8092  0.8334
   33POPC   O21 4318   0.430   2.093   5.733  0.8909  0.2623 -0.1894
   33POPC   C21 4319   0.360   2.010   5.652 -0.5869 -0.1985  0.4902
   33POPC   O22 4320   0.254   1.965   5.668  1.0760 -0.0030  0.3281
   33POPC   C22 4321   0.453   1.995   5.526 -0.0115  0.3424 -0.0818
   33POPC   H2R 4322   0.471   1.891   5.494 -0.3057 -0.0591  0.9985
   33POPC   H2S 4323   0.556   2.034   5.546  0.8130 -0.7769 -1.9036
   33POPC    C3 4324   0.246   2.261   5.736  0.0544  0.4823 -0.0711
   33POPC    HX 4325   0.211   2.336   5.810 -0.1065  2.0977 -1.7202
   33POPC    HY 4326   0.159   2.194   5.716  0.4243 -0.3621  1.0634
   33POPC   O31 4327   0.295   2.320   5.615  0.4412  0.1840 -0.2136
   33POPC   C31 4328   0.370   2.423   5.624  0.1105  0.2779 -0.1256
   33POPC   O32 4329   0.428   2.468   5.718  0.1859 -0.1216 -0.9034
   33POPC   C32 4330   0.375   2.483   5.487 -0.2973 -0.4468  0.5938
   33POPC   H2X 4331   0.271   2.470   5.449 -0.6963  0.6387  1.2660
   33POPC   H2Y 4332   0.436   2.423   5.416 -0.3397 -0.1360  0.2916
   33POPC   C23 4333   0.409   2.082   5.402 -0.1841 -0.2557  0.3083
   33POPC   H3R 4334   0.444   2.187   5.408  1.8568 -0.9540  1.6912
   33POPC   H3S 4335   0.298   2.083   5.393 -0.2996  0.8814  1.5213
   33POPC   C24 4336   0.470   2.029   5.267 -0.0145 -0.0410  0.8328
   33POPC   H4R 4337   0.435   1.925   5.249 -2.3990  0.8668 -0.1026
   33POPC   H4S 4338   0.581   2.024   5.277  0.0991  0.3377 -0.0658
   33POPC   C25 4339   0.423   2.115   5.149  0.8425 -0.2317 -0.1351
   33POPC   H5R 4340   0.451   2.221   5.167 -2.2276  0.7037 -0.2576
   33POPC   H5S 4341   0.314   2.105   5.131  0.8733  0.5533 -0.8321
   33POPC   C26 4342   0.498   2.071   5.025  0.8897  0.3054 -0.0692
   33POPC   H6R 4343   0.478   1.962   5.018 -2.9084  0.7346  1.8935
   33POPC   H6S 4344   0.601   2.098   5.057  0.2723  0.5335  1.8588
   33POPC   C27 4345   0.454   2.145   4.896 -0.1160  0.1158 -1.0224
   33POPC   H7R 4346   0.443   2.255   4.910 -1.3762 -0.1783  0.6252
   33POPC   H7S 4347   0.350   2.108   4.879 -0.3239 -0.3166  0.9296
   33POPC   C28 4348   0.554   2.118   4.779 -0.5609  1.3501 -0.6743
   33POPC   H8R 4349   0.567   2.008   4.770 -0.7087  1.3905 -1.4364
   33POPC   H8S 4350   0.651   2.166   4.802  0.2327  0.2578 -1.6499
   33POPC   C29 4351   0.504   2.192   4.657 -0.4894  0.4811  0.2750
   33POPC   H91 4352   0.484   2.299   4.672 -0.6186  0.5246 -0.2131
   33POPC  C210 4353   0.487   2.143   4.527 -0.3367  0.3398  0.1192
   33POPC  H101 4354   0.469   2.201   4.436 -0.4906  0.7642  0.4163
   33POPC  C211 4355   0.504   2.000   4.499  0.0065 -0.6101 -0.0112
   33POPC  H11R 4356   0.476   1.943   4.590 -1.8749  1.3307  0.7032
   33POPC  H11S 4357   0.610   1.973   4.478  0.4936  1.7668 -0.9440
   33POPC  C212 4358   0.405   1.941   4.399 -0.0427 -0.5089 -0.1633
   33POPC  H12R 4359   0.346   2.019   4.347  0.4695  1.3132  1.8209
   33POPC  H12S 4360   0.337   1.878   4.460  0.1513 -0.5788 -0.0151
   33POPC  C213 4361   0.468   1.850   4.287  0.4381  0.0011 -0.6086
   33POPC  H13R 4362   0.546   1.915   4.241 -2.2714  1.8855 -2.8955
   33POPC  H13S 4363   0.385   1.836   4.215  0.5009  3.0844 -1.4476
   33POPC  C214 4364   0.506   1.708   4.333  0.6218 -0.0554  0.0626
   33POPC  H14R 4365   0.517   1.642   4.245 -0.7049  0.3762 -0.4544
   33POPC  H14S 4366   0.420   1.667   4.389  1.4673  0.5128  1.8368
   33POPC  C215 4367   0.630   1.708   4.420  0.5457 -0.4037  0.3477
   33POPC  H15R 4368   0.603   1.750   4.519 -1.9333 -0.9847 -0.0124
   33POPC  H15S 4369   0.703   1.782   4.381 -0.4359  0.2419 -0.3058
   33POPC  C216 4370   0.697   1.574   4.423  0.1779 -0.0885  0.0392
   33POPC  H16R 4371   0.704   1.552   4.314 -1.9162  1.3033 -0.4472
   33POPC  H16S 4372   0.640   1.503   4.487  2.1830  0.0098  2.0405
   33POPC  C217 4373   0.836   1.577   4.477 -0.0069  0.2859 -0.5933
   33POPC  H17R 4374   0.834   1.610   4.582  1.8543  1.4451 -0.8794
   33POPC  H17S 4375   0.902   1.641   4.414  0.0094  0.7042 -0.1522
   33POPC  C218 4376   0.881   1.431   4.475  0.6686  0.1995 -0.4503
   33POPC  H18R 4377   0.882   1.402   4.367  1.1151  2.5068 -1.1223
   33POPC  H18S 4378   0.806   1.371   4.531 -1.0530  1.3993 -1.3659
   33POPC  H18T 4379   0.982   1.424   4.520  0.2773 -0.3136  0.3689
   33POPC   C33 4380   0.412   2.631   5.485 -0.6038  0.6049  0.0127
   33POPC   H3X 4381   0.495   2.656   5.554 -1.1475  0.5473  0.7071
   33POPC   H3Y 4382   0.334   2.694   5.533  0.4204  1.3024  0.8079
   33POPC   C34 4383   0.460   2.690   5.346 -0.0566  0.6253 -0.4288
   33POPC   H4X 4384   0.558   2.643   5.319  0.8710  2.3963 -0.2830
   33POPC   H4Y 4385   0.474   2.800   5.353 -1.4440  0.7424  0.9228
   33POPC   C35 4386   0.354   2.662   5.238 -0.5136  0.5283  0.0767
   33POPC   H5X 4387   0.263   2.707   5.284  0.3841  2.1986  0.2968
   33POPC   H5Y 4388   0.328   2.555   5.224  3.0420 -0.5634  0.7569
   33POPC   C36 4389   0.367   2.746   5.102 -0.4402 -0.4275  0.4951
   33POPC   H6X 4390   0.475   2.729   5.082 -0.8172 -1.3073 -0.9023
   33POPC   H6Y 4391   0.347   2.853   5.123  2.2066 -0.2257  2.6428
   33POPC   C37 4392   0.262   2.706   5.003  0.3674  1.1884 -0.0105
   33POPC   H7X 4393   0.162   2.738   5.038  0.2460  1.4837 -0.6113
   33POPC   H7Y 4394   0.262   2.595   4.994 -0.8131  1.2426 -1.0197
   33POPC   C38 4395   0.296   2.769   4.861 -1.2133 -0.1460 -0.2745
   33POPC   H8X 4396   0.395   2.734   4.824 -0.9128  0.8582 -0.4473
   33POPC   H8Y 4397   0.298   2.880   4.870  0.7978 -0.2029  0.5097
   33POPC   C39 4398   0.206   2.732   4.746  0.0037  0.6010  0.0346
   33POPC   H9X 4399   0.106   2.781   4.752 -0.6974 -0.6796 -0.7914
   33POPC   H9Y 4400   0.176   2.625   4.752  0.4828  0.4897  0.4565
   33POPC  C310 4401   0.278   2.745   4.609 -0.3046  0.5581  0.4830
   33POPC  H10X 4402   0.359   2.669   4.601  0.1803  1.1955 -1.2599
   33POPC  H10Y 4403   0.327   2.845   4.606  0.6794  0.0828  0.0007
   33POPC  C311 4404   0.185   2.739   4.489  0.1156  0.9487 -0.1765
   33POPC  H11X 4405   0.102   2.810   4.509 -0.5363 -0.0450  0.7946
   33POPC  H11Y 4406   0.144   2.636   4.489  0.3192  0.7997 -2.5783
   33POPC  C312 4407   0.241   2.770   4.355  0.1927  0.5617  0.5162
   33POPC  H12X 4408   0.300   2.677   4.338 -1.0414 -0.1579  0.0939
   33POPC  H12Y 4409   0.307   2.860   4.353  0.5669  0.4161  3.0136
   33POPC  C313 4410   0.134   2.795   4.250  0.3386  0.5059  0.3568
   33POPC  H13X 4411   0.102   2.902   4.258  1.6331  0.8966  0.5534
   33POPC  H13Y 4412   0.051   2.724   4.268  1.3432 -0.7767  0.0497
   33POPC  C314 4413   0.186   2.777   4.106 -0.5161  1.2276  0.7290
   33POPC  H14X 4414   0.207   2.671   4.081 -0.2519  1.2891  0.6868
   33POPC  H14Y 4415   0.288   2.820   4.095  0.6284 -1.4887  0.0252
   33POPC  C315 4416   0.084   2.827   4.003 -0.5392 -0.3189  0.6159
   33POPC  H15X 4417   0.137   2.855   3.909  0.1649 -2.6459  0.2454
   33POPC  H15Y 4418   0.041   2.923   4.037  1.1052  1.1264 -1.1451
   33POPC  C316 4419  -0.023   2.717   3.968  0.2110 -0.5842 -0.3748
   33POPC  H16X 4420  -0.061   2.671   4.062 -0.2136  1.4867  0.5081
   33POPC  H16Y 4421   0.024   2.636   3.907  1.2493 -0.7110  0.5643
   33POPC  H16Z 4422  -0.102   2.764   3.906 -0.4121 -0.0139  0.8253
   34POPC     N 4423   1.776   1.127   6.463 -0.0188 -0.4052 -0.3446
   34POPC   C12 4424   1.765   1.072   6.321 -0.2073  0.6213  0.0847
   34POPC  H12A 4425   1.864   1.038   6.290  0.5386  3.2912 -0.7554
   34POPC  H12B 4426   1.748   1.159   6.258  1.7063 -0.0079 -1.4310
   34POPC   C13 4427   1.785   1.015   6.564  0.3378  0.2428  0.2583
   34POPC  H13A 4428   1.700   0.948   6.563  0.1503  0.4667  0.8354
   34POPC  H13B 4429   1.872   0.953   6.547 -1.0891 -1.6807 -0.4504
   34POPC  H13C 4430   1.795   1.050   6.665  0.7301  0.7341  0.0526
   34POPC   C14 4431   1.895   1.215   6.481  0.6756 -0.8456  0.0795
   34POPC  H14A 4432   1.881   1.289   6.558  0.1003 -0.0115 -0.7997
   34POPC  H14B 4433   1.989   1.162   6.488  2.0406  1.2869 -0.8562
   34POPC  H14C 4434   1.914   1.277   6.394  0.6196  0.4990  0.9931
   34POPC   C15 4435   1.650   1.206   6.499  0.1184  0.0864 -0.0956
   34POPC  H15A 4436   1.617   1.187   6.600 -1.2652 -0.9562 -0.7143
   34POPC  H15B 4437   1.570   1.171   6.435  0.4723 -0.7941 -0.0737
   34POPC  H15C 4438   1.670   1.309   6.473  3.4412 -0.5350 -0.4761
   34POPC   C11 4439   1.645   0.975   6.303 -0.4789 -0.0570  0.8797
   34POPC  H11A 4440   1.664   0.892   6.375  5.0988  0.1953  0.1525
   34POPC  H11B 4441   1.649   0.926   6.204  2.0768 -0.3066  1.0337
   34POPC     P 4442   1.436   1.082   6.189  0.0453  0.7261 -0.2430
   34POPC   O13 4443   1.501   1.193   6.124 -0.1515 -0.2261 -0.2468
   34POPC   O14 4444   1.296   1.090   6.225  0.1015 -0.2059 -0.7475
   34POPC   O12 4445   1.516   1.036   6.320 -0.0104 -0.1063  0.5244
   34POPC   O11 4446   1.463   0.953   6.094  0.5263  0.5027  0.7801
   34POPC    C1 4447   1.416   0.960   5.955 -0.0476 -0.4568 -1.2037
   34POPC    HA 4448   1.437   1.053   5.898 -3.7298  0.2530 -1.6292
   34POPC    HB 4449   1.310   0.926   5.952  1.1017 -4.6604 -2.3842
   34POPC    C2 4450   1.491   0.848   5.875  0.4980 -0.2067  0.4165
   34POPC    HS 4451   1.601   0.863   5.881  0.5235 -0.6020  0.9897
   34POPC   O21 4452   1.448   0.845   5.742  0.0445  0.1945  0.0234
   34POPC   C21 4453   1.513   0.934   5.662 -0.0464 -1.3460 -0.7931
   34POPC   O22 4454   1.587   1.023   5.707 -0.2197  0.9091 -0.1367
   34POPC   C22 4455   1.485   0.923   5.511 -0.2076 -0.2582 -0.6439
   34POPC   H2R 4456   1.458   0.817   5.493 -0.5101 -0.5177  1.0965
   34POPC   H2S 4457   1.579   0.943   5.454 -1.5189 -1.8519 -3.5754
   34POPC    C3 4458   1.464   0.710   5.942 -0.4048  0.8781  0.2279
   34POPC    HX 4459   1.353   0.701   5.945 -0.3545  0.4992  2.1045
   34POPC    HY 4460   1.501   0.709   6.047 -1.2969  1.5635  0.5578
   34POPC   O31 4461   1.538   0.604   5.866 -0.0569  0.2945  0.1439
   34POPC   C31 4462   1.672   0.595   5.886  0.0854  0.1792  0.0053
   34POPC   O32 4463   1.735   0.675   5.957  0.4431  0.1028  0.1377
   34POPC   C32 4464   1.735   0.497   5.790  0.6288  0.1510  0.5097
   34POPC   H2X 4465   1.690   0.398   5.813 -1.9529  1.4254  1.3068
   34POPC   H2Y 4466   1.845   0.490   5.809  0.6658  1.9061  1.0557
   34POPC   C23 4467   1.393   1.029   5.457 -0.2302 -1.1787  0.7776
   34POPC   H3R 4468   1.399   1.128   5.507 -0.1011  0.8174 -2.8253
   34POPC   H3S 4469   1.289   0.994   5.475 -1.6610  1.6658 -1.1021
   34POPC   C24 4470   1.423   1.052   5.309 -0.2069  0.2606  0.4652
   34POPC   H4R 4471   1.433   0.958   5.250 -2.5859 -0.8053  1.5993
   34POPC   H4S 4472   1.516   1.111   5.294  0.7505 -0.5414  2.7491
   34POPC   C25 4473   1.311   1.136   5.244  0.1342 -0.3135  0.2370
   34POPC   H5R 4474   1.300   1.230   5.303  2.1139  0.9364 -1.2413
   34POPC   H5S 4475   1.211   1.090   5.250 -0.6846  1.0704 -1.6273
   34POPC   C26 4476   1.331   1.177   5.096 -0.2711 -0.5657 -0.3664
   34POPC   H6R 4477   1.356   1.090   5.033 -1.0160  0.8735 -2.7867
   34POPC   H6S 4478   1.417   1.247   5.087 -0.8174  0.1894  0.1503
   34POPC   C27 4479   1.202   1.229   5.034  0.0969 -0.1625  0.1746
   34POPC   H7R 4480   1.161   1.313   5.094 -0.9368  0.4802 -1.3692
   34POPC   H7S 4481   1.120   1.155   5.049 -2.2140  1.8524 -1.6432
   34POPC   C28 4482   1.229   1.277   4.894 -0.4650 -0.3641 -0.2807
   34POPC   H8R 4483   1.267   1.193   4.832  0.4179  1.6330 -2.6174
   34POPC   H8S 4484   1.320   1.341   4.888  0.1436 -1.1000  0.8033
   34POPC   C29 4485   1.108   1.338   4.828 -0.2398 -0.1227 -0.2779
   34POPC   H91 4486   1.112   1.448   4.828  0.6073 -0.1251  1.3996
   34POPC  C210 4487   1.004   1.264   4.790 -0.4239  0.0069  0.6588
   34POPC  H101 4488   0.926   1.312   4.729  0.2031  0.2836  0.0632
   34POPC  C211 4489   0.999   1.113   4.779 -0.3951 -0.1664 -0.2438
   34POPC  H11R 4490   0.947   1.071   4.867 -1.3416  0.8995 -0.2844
   34POPC  H11S 4491   1.103   1.075   4.763  0.6288  2.7323 -1.2209
   34POPC  C212 4492   0.923   1.060   4.657 -0.1351  1.1830 -0.0115
   34POPC  H12R 4493   0.819   1.098   4.668 -0.4606 -0.1921  2.2882
   34POPC  H12S 4494   0.899   0.952   4.659 -0.1598  1.1962  1.8488
   34POPC  C213 4495   0.997   1.099   4.525  0.4757  0.0131  0.2919
   34POPC  H13R 4496   1.032   1.202   4.546 -0.9862  0.4751  0.5836
   34POPC  H13S 4497   0.928   1.098   4.437  1.2402  2.1376 -0.4001
   34POPC  C214 4498   1.114   1.003   4.487  0.4007 -0.6184  0.1852
   34POPC  H14R 4499   1.068   0.903   4.470 -1.8980  0.5289 -0.7666
   34POPC  H14S 4500   1.185   0.998   4.572  1.8335  0.3505 -0.8993
   34POPC  C215 4501   1.189   1.049   4.361  0.1895  0.1713  0.2910
   34POPC  H15R 4502   1.114   1.070   4.281  0.4688  2.1481  0.5029
   34POPC  H15S 4503   1.254   0.970   4.316 -0.8035  0.0414 -0.9895
   34POPC  C216 4504   1.283   1.173   4.373 -0.6450 -0.5697  0.4733
   34POPC  H16R 4505   1.358   1.150   4.452 -0.6891 -0.6171  0.5010
   34POPC  H16S 4506   1.221   1.258   4.408 -1.7751 -0.4069 -1.7342
   34POPC  C217 4507   1.366   1.196   4.246 -0.2355 -0.0036  0.0465
   34POPC  H17R 4508   1.417   1.098   4.230 -0.0051  0.1153  0.0459
   34POPC  H17S 4509   1.449   1.265   4.275 -1.2100  1.2851 -0.1642
   34POPC  C218 4510   1.293   1.229   4.123  0.2246  0.3624  0.6654
   34POPC  H18R 4511   1.249   1.331   4.115  3.6911  1.9996  0.4571
   34POPC  H18S 4512   1.215   1.155   4.098  0.9380 -0.3887  0.6090
   34POPC  H18T 4513   1.373   1.225   4.046 -0.1246 -3.4751  0.2998
   34POPC   C33 4514   1.704   0.519   5.636  0.2044  0.4448  0.9371
   34POPC   H3X 4515   1.596   0.505   5.614  0.2924 -0.9837  1.3184
   34POPC   H3Y 4516   1.748   0.429   5.588 -1.6472  0.3112 -0.6128
   34POPC   C34 4517   1.760   0.650   5.595  0.2537  0.4571 -0.5070
   34POPC   H4X 4518   1.866   0.661   5.626  0.8653 -0.1916 -2.2539
   34POPC   H4Y 4519   1.700   0.734   5.636 -1.1477 -1.4442  1.5040
   34POPC   C35 4520   1.756   0.676   5.447 -0.7073  0.5298  0.4233
   34POPC   H5X 4521   1.657   0.658   5.400  0.1843 -0.6547 -1.1136
   34POPC   H5Y 4522   1.808   0.585   5.408 -1.2090 -0.3540  1.7466
   34POPC   C36 4523   1.821   0.807   5.397  0.6323 -0.0669  0.5010
   34POPC   H6X 4524   1.931   0.794   5.404  0.6760  0.5735  1.1738
   34POPC   H6Y 4525   1.794   0.890   5.466  0.9807  0.7405 -0.3025
   34POPC   C37 4526   1.775   0.840   5.248  0.1392  0.0360  0.5062
   34POPC   H7X 4527   1.665   0.833   5.235  0.3764 -2.2033 -0.9098
   34POPC   H7Y 4528   1.821   0.770   5.176  1.3629  2.0492 -0.7690
   34POPC   C38 4529   1.829   0.967   5.193 -0.7937 -0.0239 -0.2123
   34POPC   H8X 4530   1.935   0.985   5.218 -1.3733  1.6340  1.3121
   34POPC   H8Y 4531   1.776   1.053   5.241  0.5262  0.7892 -0.1664
   34POPC   C39 4532   1.809   0.999   5.041 -0.0899 -0.4699 -0.3230
   34POPC   H9X 4533   1.879   0.938   4.980 -1.0038 -2.2329  0.3086
   34POPC   H9Y 4534   1.836   1.105   5.023  0.0687 -0.2473  1.1139
   34POPC  C310 4535   1.666   0.981   4.980 -0.2777  1.1809  0.1188
   34POPC  H10X 4536   1.596   1.039   5.045  0.2763 -0.1954  2.0578
   34POPC  H10Y 4537   1.658   0.872   4.997  1.1385  0.9639 -0.4575
   34POPC  C311 4538   1.657   1.003   4.833 -0.1656 -0.7343  0.1243
   34POPC  H11X 4539   1.577   0.945   4.784  0.2643 -1.9456  0.8191
   34POPC  H11Y 4540   1.744   0.959   4.779  1.2929  0.3235  1.4934
   34POPC  C312 4541   1.649   1.148   4.776  0.1527 -0.0096 -0.1386
   34POPC  H12X 4542   1.722   1.199   4.842  0.5346 -0.7720  0.0421
   34POPC  H12Y 4543   1.547   1.191   4.785 -0.2389 -1.0923  0.7588
   34POPC  C313 4544   1.694   1.158   4.633 -0.9642  0.1129 -0.8598
   34POPC  H13X 4545   1.638   1.097   4.558 -1.2489 -0.0363 -0.5266
   34POPC  H13Y 4546   1.798   1.117   4.626 -1.1938 -0.6777  0.1082
   34POPC  C314 4547   1.677   1.309   4.589  1.1449  0.2392  0.3617
   34POPC  H14X 4548   1.716   1.376   4.668 -1.0727 -0.8572  2.5109
   34POPC  H14Y 4549   1.571   1.338   4.576  0.6810 -1.7218 -0.5864
   34POPC  C315 4550   1.741   1.339   4.450 -0.2715  0.3223 -0.2835
   34POPC  H15X 4551   1.699   1.266   4.377  2.9483 -0.4428 -1.5815
   34POPC  H15Y 4552   1.849   1.317   4.465 -0.4088  0.9312  1.8825
   34POPC  C316 4553   1.729   1.486   4.397  0.3427  0.0756  0.4194
   34POPC  H16X 4554   1.623   1.492   4.365  0.3046  0.2274  0.5743
   34POPC  H16Y 4555   1.788   1.504   4.305 -1.6643 -1.4262 -1.2349
   34POPC  H16Z 4556   1.747   1.557   4.481 -1.0450 -0.2782  1.0509
   35POPC     N 4557   0.994   1.762   6.550 -0.6175  0.4321  0.1498
   35POPC   C12 4558   1.015   1.783   6.398 -0.2462  0.1372 -0.2454
   35POPC  H12A 4559   1.106   1.730   6.375  1.1434  1.7063  1.3273
   35POPC  H12B 4560   1.039   1.887   6.382 -0.9193  0.6174  1.6042
   35POPC   C13 4561   0.974   1.619   6.582  0.1149 -0.9283  0.0329
   35POPC  H13A 4562   0.952   1.612   6.687 -0.0334  0.3474  0.1028
   35POPC  H13B 4563   0.899   1.576   6.516  0.2767 -0.4360 -0.4751
   35POPC  H13C 4564   1.072   1.577   6.567  0.7095  0.0491  1.0953
   35POPC   C14 4565   1.119   1.819   6.608 -0.6331  0.3926  0.0343
   35POPC  H14A 4566   1.205   1.764   6.572 -1.6757 -1.3071  0.0102
   35POPC  H14B 4567   1.135   1.922   6.581  0.1864  0.0607 -0.7928
   35POPC  H14C 4568   1.110   1.821   6.715  1.0820  1.2529  0.1954
   35POPC   C15 4569   0.873   1.841   6.603 -0.4421 -0.4342 -0.1341
   35POPC  H15A 4570   0.889   1.947   6.598 -0.2872 -0.2840  2.3337
   35POPC  H15B 4571   0.865   1.820   6.709 -0.9921  0.1815 -0.0530
   35POPC  H15C 4572   0.779   1.813   6.558 -1.5771 -0.7256  2.2548
   35POPC   C11 4573   0.896   1.734   6.302 -0.4711 -0.7946  0.0980
   35POPC  H11A 4574   0.907   1.779   6.201  0.1274  2.7690  1.5964
   35POPC  H11B 4575   0.811   1.794   6.342  0.5756  1.9051 -1.4224
   35POPC     P 4576   0.938   1.491   6.226  0.0093  0.0810 -0.1161
   35POPC   O13 4577   0.855   1.370   6.209  0.2215 -0.0109  0.2761
   35POPC   O14 4578   1.071   1.475   6.293  0.1132  0.5589 -0.7284
   35POPC   O12 4579   0.862   1.595   6.308  0.0966  0.5060  0.7984
   35POPC   O11 4580   0.948   1.572   6.089  0.0155 -0.5212  0.3733
   35POPC    C1 4581   1.067   1.647   6.062  0.5436 -0.4668  0.1512
   35POPC    HA 4582   1.140   1.664   6.144  3.0003 -0.9303 -1.7822
   35POPC    HB 4583   1.031   1.747   6.031  0.7372 -0.0198  1.3395
   35POPC    C2 4584   1.150   1.601   5.943 -0.3321 -0.0080  0.3298
   35POPC    HS 4585   1.212   1.680   5.895 -1.9297  0.2244 -1.4575
   35POPC   O21 4586   1.065   1.541   5.846 -0.3559 -0.2141  0.4970
   35POPC   C21 4587   1.001   1.630   5.762  0.2157 -0.1540  0.2241
   35POPC   O22 4588   1.030   1.749   5.752 -0.7267  0.3513 -0.6461
   35POPC   C22 4589   0.908   1.549   5.667 -0.3320  0.1411  0.1357
   35POPC   H2R 4590   0.805   1.560   5.706 -0.1306  0.1801  0.6569
   35POPC   H2S 4591   0.931   1.441   5.679  0.1931  0.2188 -0.1492
   35POPC    C3 4592   1.252   1.495   6.003 -0.0736 -0.2899  0.1463
   35POPC    HX 4593   1.188   1.405   6.017  1.1331 -0.9935  1.4548
   35POPC    HY 4594   1.292   1.528   6.102 -3.1097  0.9029  1.0845
   35POPC   O31 4595   1.364   1.480   5.920 -0.3939  0.3669  0.1051
   35POPC   C31 4596   1.372   1.375   5.843 -0.6280  0.7004  0.8410
   35POPC   O32 4597   1.300   1.276   5.837  0.6444 -0.6553 -0.9308
   35POPC   C32 4598   1.498   1.389   5.754 -0.9485  0.1647  0.9892
   35POPC   H2X 4599   1.536   1.285   5.744 -1.5562 -0.0837  1.2135
   35POPC   H2Y 4600   1.571   1.460   5.799 -0.6915  1.1454 -0.8671
   35POPC   C23 4601   0.919   1.589   5.518 -0.3983  0.4628 -0.4137
   35POPC   H3R 4602   0.985   1.516   5.466  0.6526 -0.0138  1.4851
   35POPC   H3S 4603   0.956   1.693   5.506 -0.4511  0.7864  1.7565
   35POPC   C24 4604   0.779   1.584   5.458  0.6827 -0.2438  0.2295
   35POPC   H4R 4605   0.712   1.644   5.524  0.0984  0.2906 -0.8298
   35POPC   H4S 4606   0.748   1.478   5.461  0.6678 -0.2383  0.2754
   35POPC   C25 4607   0.773   1.647   5.318 -0.3914  0.2688 -0.5610
   35POPC   H5R 4608   0.841   1.597   5.246 -1.4555  0.3646 -1.6687
   35POPC   H5S 4609   0.799   1.754   5.332  1.4449 -0.4067  1.9485
   35POPC   C26 4610   0.631   1.639   5.256 -0.2903 -0.3977 -0.7584
   35POPC   H6R 4611   0.558   1.699   5.315  0.9439  0.1222  0.2890
   35POPC   H6S 4612   0.588   1.536   5.250  0.2435 -0.9548  2.6413
   35POPC   C27 4613   0.634   1.703   5.112 -0.0053 -0.0394 -0.3716
   35POPC   H7R 4614   0.728   1.667   5.066  0.5962 -1.3493  1.7796
   35POPC   H7S 4615   0.646   1.814   5.117  2.0047 -0.2386  4.2208
   35POPC   C28 4616   0.511   1.657   5.035  0.4604  0.3059 -0.8472
   35POPC   H8R 4617   0.422   1.710   5.075 -0.1160  0.2604 -2.0141
   35POPC   H8S 4618   0.487   1.554   5.068  2.1666  0.2702  0.3955
   35POPC   C29 4619   0.523   1.669   4.884  0.6015 -0.0214 -0.0865
   35POPC   H91 4620   0.527   1.771   4.845 -1.2973  0.4284  0.7879
   35POPC  C210 4621   0.535   1.560   4.801  0.0330  0.7321 -0.1093
   35POPC  H101 4622   0.557   1.577   4.694  1.6220  1.6687  0.3264
   35POPC  C211 4623   0.535   1.414   4.835 -0.4831  0.4603 -0.1402
   35POPC  H11R 4624   0.517   1.349   4.747  0.0854  0.6356 -0.3939
   35POPC  H11S 4625   0.454   1.398   4.909 -1.2043  0.2054 -0.9756
   35POPC  C212 4626   0.671   1.360   4.896  0.0066  0.3937 -1.0306
   35POPC  H12R 4627   0.702   1.416   4.987  0.5541  0.3724 -1.2031
   35POPC  H12S 4628   0.758   1.367   4.828  0.1164 -0.2305 -0.9617
   35POPC  C213 4629   0.648   1.211   4.939 -0.0701 -0.9782 -0.1246
   35POPC  H13R 4630   0.697   1.142   4.866  3.8954 -0.1265  1.4616
   35POPC  H13S 4631   0.541   1.182   4.947  0.1489 -1.5612  0.9284
   35POPC  C214 4632   0.728   1.179   5.066  0.2080 -0.2716  0.0604
   35POPC  H14R 4633   0.830   1.220   5.050  0.9263 -1.7167  0.7318
   35POPC  H14S 4634   0.748   1.070   5.059 -1.5419 -0.4976 -2.6719
   35POPC  C215 4635   0.685   1.221   5.200  0.6959 -0.3909 -0.1184
   35POPC  H15R 4636   0.589   1.175   5.232 -0.1493  2.9499  2.8606
   35POPC  H15S 4637   0.659   1.329   5.206  0.5463 -0.5099  2.2915
   35POPC  C216 4638   0.787   1.190   5.316  0.2499 -0.3669  0.5769
   35POPC  H16R 4639   0.812   1.082   5.313  1.8679 -0.0038 -0.7700
   35POPC  H16S 4640   0.737   1.209   5.413 -0.1702  0.3053  0.2316
   35POPC  C217 4641   0.929   1.249   5.305 -0.2958  0.4842  0.2426
   35POPC  H17R 4642   0.940   1.350   5.262  2.7667 -0.7102 -2.2084
   35POPC  H17S 4643   0.980   1.192   5.223 -2.5948  2.5913 -2.8457
   35POPC  C218 4644   1.005   1.237   5.432 -0.1832 -0.1918 -0.3022
   35POPC  H18R 4645   1.109   1.273   5.422  0.4353 -1.4112  1.2481
   35POPC  H18S 4646   1.029   1.132   5.457  1.2823  0.3145  0.4946
   35POPC  H18T 4647   0.952   1.288   5.516  1.9388 -1.5424  2.0046
   35POPC   C33 4648   1.461   1.445   5.618 -0.1430 -0.3619 -0.6148
   35POPC   H3X 4649   1.365   1.409   5.574 -1.2586  3.6806 -1.8724
   35POPC   H3Y 4650   1.545   1.423   5.550  1.1184  2.4082 -0.0630
   35POPC   C34 4651   1.453   1.600   5.620 -0.1929  0.4004  0.0140
   35POPC   H4X 4652   1.549   1.633   5.663  0.1043  0.7566 -0.9023
   35POPC   H4Y 4653   1.366   1.633   5.681  0.5434  0.2790  1.1444
   35POPC   C35 4654   1.453   1.653   5.476  0.6882 -0.2018 -1.0027
   35POPC   H5X 4655   1.534   1.605   5.417  0.8851 -0.1391 -0.7836
   35POPC   H5Y 4656   1.483   1.760   5.470  1.7414 -0.4976 -1.1826
   35POPC   C36 4657   1.321   1.623   5.398  0.1655  0.4612  0.0445
   35POPC   H6X 4658   1.233   1.662   5.454  0.1852  1.8143 -0.8193
   35POPC   H6Y 4659   1.300   1.514   5.385 -2.7360  1.0740 -1.2938
   35POPC   C37 4660   1.309   1.693   5.263  0.1835  0.8484  0.4046
   35POPC   H7X 4661   1.374   1.654   5.182 -0.3462  0.8629 -0.0321
   35POPC   H7Y 4662   1.331   1.801   5.276 -0.0724  0.6872  2.5577
   35POPC   C38 4663   1.170   1.682   5.202 -1.0276  0.2248 -0.0040
   35POPC   H8X 4664   1.093   1.714   5.275 -0.9337  0.5241 -0.0305
   35POPC   H8Y 4665   1.138   1.577   5.194  2.5042 -1.7262  5.4057
   35POPC   C39 4666   1.151   1.764   5.079  0.3779  0.4599  0.3248
   35POPC   H9X 4667   1.228   1.737   5.003  0.3008 -0.6420  0.6168
   35POPC   H9Y 4668   1.168   1.870   5.109 -1.3646  0.8812 -0.0601
   35POPC  C310 4669   1.011   1.743   5.017  0.5167  0.4376  0.8129
   35POPC  H10X 4670   0.930   1.788   5.079 -1.6367 -0.7489 -0.9899
   35POPC  H10Y 4671   0.987   1.635   5.019  3.1769 -0.2142  1.1536
   35POPC  C311 4672   1.002   1.817   4.884 -0.7573 -0.7633 -0.0082
   35POPC  H11X 4673   1.053   1.750   4.811  1.0248 -0.5006  0.9334
   35POPC  H11Y 4674   1.072   1.902   4.899  0.1451 -1.6219  0.7958
   35POPC  C312 4675   0.862   1.865   4.833 -0.0964  0.7103 -0.5653
   35POPC  H12X 4676   0.816   1.947   4.892  0.2563  0.0683  0.6256
   35POPC  H12Y 4677   0.781   1.790   4.837 -0.1728  0.8066 -0.3088
   35POPC  C313 4678   0.872   1.906   4.690 -0.5258 -0.5420 -0.0493
   35POPC  H13X 4679   0.771   1.900   4.645 -0.6614 -0.3681  0.2295
   35POPC  H13Y 4680   0.945   1.842   4.635  1.6553  1.4033  0.3892
   35POPC  C314 4681   0.919   2.053   4.686  0.4544  0.3219  0.4274
   35POPC  H14X 4682   1.025   2.047   4.720  0.6107 -0.0625 -0.1132
   35POPC  H14Y 4683   0.871   2.118   4.763 -0.5848 -1.1216  1.0327
   35POPC  C315 4684   0.921   2.121   4.550 -0.0810 -0.3959  0.1888
   35POPC  H15X 4685   0.985   2.212   4.558 -0.7452  0.4417 -2.7562
   35POPC  H15Y 4686   0.819   2.162   4.535  0.1883 -0.6337 -3.0197
   35POPC  C316 4687   0.972   2.033   4.434 -1.0214  0.0973  0.4674
   35POPC  H16X 4688   0.922   1.934   4.430  0.8833 -0.8937 -0.0467
   35POPC  H16Y 4689   1.082   2.022   4.438 -1.2002 -2.3676  0.1819
   35POPC  H16Z 4690   0.947   2.077   4.335  2.1038 -1.0640 -0.9632
   36POPC     N 4691   3.559   0.838   5.921 -0.2253 -0.4285  0.2492
   36POPC   C12 4692   3.588   0.696   5.934  0.1878 -0.0017  0.2243
   36POPC  H12A 4693   3.674   0.665   5.877  0.2311 -2.0297  1.3191
   36POPC  H12B 4694   3.503   0.639   5.901  1.2499 -1.3034 -0.3305
   36POPC   C13 4695   3.528   0.867   5.775 -0.2137 -0.1524 -0.0282
   36POPC  H13A 4696   3.521   0.973   5.754 -0.9516  0.3651  2.4458
   36POPC  H13B 4697   3.595   0.818   5.706 -0.3662  0.7898 -0.8656
   36POPC  H13C 4698   3.436   0.819   5.748  0.5974 -0.2870 -2.7896
   36POPC   C14 4699   3.447   0.888   6.007  0.1907 -0.1620  0.6145
   36POPC  H14A 4700   3.350   0.859   5.969 -1.4738  0.0283  4.2645
   36POPC  H14B 4701   3.460   0.853   6.108 -0.1915 -1.8655  0.1082
   36POPC  H14C 4702   3.453   0.995   6.019  0.7201 -0.2472  1.1387
   36POPC   C15 4703   3.683   0.915   5.947  0.0241 -0.0149  0.0272
   36POPC  H15A 4704   3.718   0.911   6.049  1.3215 -1.1642 -0.4400
   36POPC  H15B 4705   3.650   1.016   5.930  0.6884  0.3947  1.0601
   36POPC  H15C 4706   3.750   0.877   5.871 -0.1021 -1.2255  0.4991
   36POPC   C11 4707   3.624   0.634   6.068 -0.5331 -0.4117  0.6364
   36POPC  H11A 4708   3.709   0.691   6.110 -0.6861  0.8756 -0.7055
   36POPC  H11B 4709   3.662   0.533   6.041 -1.3541  0.4591 -5.0238
   36POPC     P 4710   3.413   0.517   6.155 -0.0677  0.0258  0.0474
   36POPC   O13 4711   3.298   0.552   6.234 -0.3821 -0.5761  0.2678
   36POPC   O14 4712   3.491   0.393   6.186  0.1009  0.0497 -0.5601
   36POPC   O12 4713   3.515   0.639   6.158  0.4429 -0.0593  0.1868
   36POPC   O11 4714   3.369   0.512   6.000 -0.0477  0.4847 -0.4547
   36POPC    C1 4715   3.259   0.596   5.960 -0.0865  0.0637  0.2793
   36POPC    HA 4716   3.279   0.620   5.853  2.0763  0.8551  0.8005
   36POPC    HB 4717   3.253   0.691   6.018  2.4162 -1.0692  2.6550
   36POPC    C2 4718   3.130   0.515   5.969  0.7137  0.0288 -0.3965
   36POPC    HS 4719   3.100   0.501   6.075  0.9067 -2.5749 -0.6297
   36POPC   O21 4720   3.145   0.390   5.905  0.0963 -0.1474 -0.4820
   36POPC   C21 4721   3.047   0.298   5.934  0.1898 -0.6586  0.5996
   36POPC   O22 4722   2.955   0.318   6.009 -0.7930 -0.6783  0.5245
   36POPC   C22 4723   3.063   0.162   5.868 -0.6155  0.2958 -0.8996
   36POPC   H2R 4724   3.019   0.096   5.945  0.4284  0.9412  0.2943
   36POPC   H2S 4725   3.173   0.142   5.865 -0.8314 -0.9506 -0.9423
   36POPC    C3 4726   3.016   0.603   5.914 -0.2744  0.4429  0.3438
   36POPC    HX 4727   3.037   0.701   5.962  2.7000  0.3360 -0.5209
   36POPC    HY 4728   2.917   0.557   5.934  0.9674 -2.5567  0.0075
   36POPC   O31 4729   3.032   0.624   5.773 -0.3125 -0.4037  0.3263
   36POPC   C31 4730   2.964   0.727   5.719  0.0105  0.1713  0.7806
   36POPC   O32 4731   2.882   0.795   5.779 -0.3649 -0.0712  0.0464
   36POPC   C32 4732   3.023   0.749   5.575  0.2442 -0.1198  0.6602
   36POPC   H2X 4733   3.019   0.661   5.508 -0.9564  1.1151 -0.9608
   36POPC   H2Y 4734   3.129   0.776   5.595  0.8803 -2.5059  0.8458
   36POPC   C23 4735   2.998   0.153   5.729  0.6160 -0.0626  0.4740
   36POPC   H3R 4736   2.901   0.208   5.726 -0.6797 -2.1557  1.3063
   36POPC   H3S 4737   2.971   0.050   5.698 -1.5119  1.1716 -2.0934
   36POPC   C24 4738   3.088   0.206   5.619 -0.1554  0.2960 -0.5610
   36POPC   H4R 4739   3.164   0.143   5.568  0.1640  2.4715 -3.0445
   36POPC   H4S 4740   3.134   0.299   5.659  0.1361 -0.4599  0.9075
   36POPC   C25 4741   3.009   0.263   5.495  0.3446 -0.1655  0.1991
   36POPC   H5R 4742   2.939   0.347   5.515 -0.8680 -1.0426 -0.2074
   36POPC   H5S 4743   2.959   0.182   5.438 -3.7351  1.5332  0.9773
   36POPC   C26 4744   3.104   0.320   5.387 -0.5936 -0.2590 -0.0851
   36POPC   H6R 4745   3.181   0.243   5.362 -0.5978 -0.2865 -0.0116
   36POPC   H6S 4746   3.150   0.415   5.422 -0.5348  1.0064 -3.2531
   36POPC   C27 4747   3.033   0.363   5.259 -0.0484 -0.6974  0.5030
   36POPC   H7R 4748   2.961   0.445   5.278  0.2373 -0.4912  0.7043
   36POPC   H7S 4749   2.991   0.268   5.220  1.4307 -1.3616  0.4490
   36POPC   C28 4750   3.119   0.407   5.142  0.2438 -0.0574  0.3538
   36POPC   H8R 4751   3.054   0.432   5.055 -1.0169 -1.4404  0.8402
   36POPC   H8S 4752   3.177   0.316   5.117  1.4476  0.8570 -0.2179
   36POPC   C29 4753   3.226   0.513   5.161 -0.3569  0.0368 -0.5382
   36POPC   H91 4754   3.292   0.486   5.245  0.8806 -0.9553 -1.7755
   36POPC  C210 4755   3.251   0.625   5.089 -0.0061 -0.8937  0.0831
   36POPC  H101 4756   3.343   0.684   5.101 -0.1875 -0.5673 -0.1216
   36POPC  C211 4757   3.177   0.666   4.965 -0.0555  0.0203 -0.8451
   36POPC  H11R 4758   3.128   0.579   4.915  1.8810 -1.6236 -0.0165
   36POPC  H11S 4759   3.256   0.696   4.893  0.5165 -0.2613 -0.3393
   36POPC  C212 4760   3.065   0.766   4.997 -0.0647  0.4721  0.5825
   36POPC  H12R 4761   3.093   0.837   5.078 -0.9298 -0.9173  2.1633
   36POPC  H12S 4762   2.969   0.717   5.024 -0.7087  0.5634 -1.3789
   36POPC  C213 4763   3.030   0.867   4.887  0.1283  0.2919 -0.8079
   36POPC  H13R 4764   3.123   0.906   4.841  0.4210  0.3517 -0.1642
   36POPC  H13S 4765   2.988   0.949   4.950  0.8665  0.8637 -1.0388
   36POPC  C214 4766   2.936   0.811   4.783  0.1950 -0.0605 -0.4772
   36POPC  H14R 4767   2.850   0.774   4.842  2.1907 -3.1418  0.7529
   36POPC  H14S 4768   2.979   0.726   4.726  1.1666  0.9120 -1.2460
   36POPC  C215 4769   2.888   0.926   4.686  0.0275  0.0537  0.6093
   36POPC  H15R 4770   2.980   0.975   4.646  0.1662  0.1007  0.9799
   36POPC  H15S 4771   2.842   0.997   4.759 -0.4779  0.8549 -0.4708
   36POPC  C216 4772   2.794   0.892   4.569  0.0112  0.2304  0.0512
   36POPC  H16R 4773   2.712   0.820   4.588 -2.1333  2.5932  0.3985
   36POPC  H16S 4774   2.852   0.839   4.490  0.1274 -0.6056  0.6919
   36POPC  C217 4775   2.717   1.010   4.509  0.2487 -0.1613 -0.2640
   36POPC  H17R 4776   2.649   1.060   4.580  0.7208  0.9426 -0.5753
   36POPC  H17S 4777   2.657   0.964   4.428 -0.6040  2.0636 -0.9559
   36POPC  C218 4778   2.801   1.123   4.452  0.5696  0.0299 -0.6709
   36POPC  H18R 4779   2.853   1.163   4.541 -3.6770 -0.6479  2.4574
   36POPC  H18S 4780   2.730   1.198   4.411  2.6313  1.2712 -2.1593
   36POPC  H18T 4781   2.876   1.081   4.382  1.6261  1.9436 -0.7368
   36POPC   C33 4782   2.956   0.866   5.508 -0.9295  0.2172 -0.1265
   36POPC   H3X 4783   2.975   0.961   5.563 -0.5058 -1.7442  3.3569
   36POPC   H3Y 4784   2.847   0.851   5.493 -1.1975  0.6137  1.2635
   36POPC   C34 4785   3.029   0.882   5.367 -0.1931 -0.4305  0.7224
   36POPC   H4X 4786   3.020   0.781   5.321 -2.4626  0.3878 -0.8068
   36POPC   H4Y 4787   3.137   0.906   5.379 -0.6029  0.9782  1.8895
   36POPC   C35 4788   2.957   0.987   5.271  0.5490  0.0842  0.5443
   36POPC   H5X 4789   3.029   1.013   5.191  0.9503 -0.3747  0.7484
   36POPC   H5Y 4790   2.934   1.080   5.328 -1.5784  0.1753 -0.3865
   36POPC   C36 4791   2.819   0.942   5.203  0.1841  0.2062 -0.1711
   36POPC   H6X 4792   2.760   0.913   5.292  1.6708 -1.0782  0.4568
   36POPC   H6Y 4793   2.838   0.854   5.137  1.9024  1.4834 -1.4913
   36POPC   C37 4794   2.769   1.057   5.131 -0.1254 -0.7937  0.0950
   36POPC   H7X 4795   2.839   1.090   5.052 -1.6223  2.5352 -0.0114
   36POPC   H7Y 4796   2.755   1.138   5.205  0.2496  0.1342 -0.8333
   36POPC   C38 4797   2.639   1.023   5.063  0.7226  0.4363 -0.0445
   36POPC   H8X 4798   2.562   1.008   5.141 -0.8699  1.0702 -1.4338
   36POPC   H8Y 4799   2.655   0.921   5.021  0.6844  0.7605 -0.8591
   36POPC   C39 4800   2.601   1.121   4.960  0.2473  0.6727  0.2195
   36POPC   H9X 4801   2.512   1.095   4.899 -1.0667 -0.1175  2.3499
   36POPC   H9Y 4802   2.685   1.124   4.888  1.1292 -2.0542  0.9953
   36POPC  C310 4803   2.566   1.267   5.016  0.1207 -0.1855  0.0737
   36POPC  H10X 4804   2.658   1.289   5.074  0.2972 -1.6118  0.3741
   36POPC  H10Y 4805   2.490   1.257   5.097  0.6454 -1.8264  0.3939
   36POPC  C311 4806   2.539   1.368   4.905  0.5083 -1.1062  0.1037
   36POPC  H11X 4807   2.537   1.474   4.941  1.6850 -1.6160  1.8460
   36POPC  H11Y 4808   2.436   1.359   4.864  0.6482 -0.1166 -0.4929
   36POPC  C312 4809   2.647   1.373   4.793  0.1789 -0.6092 -0.1342
   36POPC  H12X 4810   2.643   1.275   4.740  1.7893 -0.9038  0.2388
   36POPC  H12Y 4811   2.753   1.390   4.822 -0.5980 -1.7168  3.8772
   36POPC  C313 4812   2.604   1.483   4.700  0.2417 -0.0707  0.3370
   36POPC  H13X 4813   2.601   1.585   4.744  0.9894  0.1585 -0.1357
   36POPC  H13Y 4814   2.497   1.470   4.672 -0.1878  1.6299  1.0029
   36POPC  C314 4815   2.691   1.492   4.578  0.0136  0.7062 -0.2653
   36POPC  H14X 4816   2.714   1.389   4.546 -0.8556 -0.5024  2.6252
   36POPC  H14Y 4817   2.787   1.540   4.607  0.4484  1.9083 -3.3902
   36POPC  C315 4818   2.635   1.585   4.471 -0.0503 -0.2246  0.3390
   36POPC  H15X 4819   2.690   1.558   4.379  1.1318  0.9810  0.6589
   36POPC  H15Y 4820   2.673   1.687   4.494  0.5557 -0.2057 -0.7167
   36POPC  C316 4821   2.485   1.580   4.438  0.6227  0.0504  0.9891
   36POPC  H16X 4822   2.444   1.477   4.433  1.7249 -0.3443 -0.6711
   36POPC  H16Y 4823   2.460   1.627   4.341  0.9133 -1.3580  0.2108
   36POPC  H16Z 4824   2.428   1.641   4.512  1.7551 -0.2758  2.1761
   37POPC     N 4825   3.293   6.161   6.579 -0.3615  0.4078 -0.2798
   37POPC   C12 4826   3.404   6.111   6.484  0.2769  0.0807  0.1417
   37POPC  H12A 4827   3.429   6.007   6.497 -0.0251 -0.1466 -0.9745
   37POPC  H12B 4828   3.493   6.171   6.494  0.9025 -0.4007 -1.9700
   37POPC   C13 4829   3.159   6.098   6.559  0.2384  0.5512 -0.6436
   37POPC  H13A 4830   3.090   6.115   6.641  0.1742  0.5908 -0.7060
   37POPC  H13B 4831   3.128   6.126   6.459  1.2035  1.5457 -0.6836
   37POPC  H13C 4832   3.165   5.990   6.558 -0.3173  0.4405  1.8281
   37POPC   C14 4833   3.343   6.145   6.725  0.6897 -0.0474  0.2885
   37POPC  H14A 4834   3.257   6.171   6.785  1.2808  1.3551  0.5750
   37POPC  H14B 4835   3.385   6.049   6.750 -0.5884 -0.9266 -0.8147
   37POPC  H14C 4836   3.418   6.222   6.737 -0.5980  1.4363 -0.8229
   37POPC   C15 4837   3.272   6.309   6.563  0.4782 -0.2720  0.1897
   37POPC  H15A 4838   3.213   6.331   6.475  0.2986  0.5100  0.4908
   37POPC  H15B 4839   3.368   6.360   6.556  0.9275 -1.0241  0.7584
   37POPC  H15C 4840   3.212   6.364   6.635 -0.1302  0.1743 -0.6411
   37POPC   C11 4841   3.362   6.127   6.338  0.2968  0.5846 -0.5284
   37POPC  H11A 4842   3.322   6.230   6.330 -0.5540  0.3835  0.8752
   37POPC  H11B 4843   3.285   6.054   6.306  0.7553 -0.5307  0.8032
   37POPC     P 4844   3.536   6.213   6.153 -0.0637  0.2105  0.3496
   37POPC   O13 4845   3.634   6.138   6.085 -0.5042  0.7611  0.0024
   37POPC   O14 4846   3.584   6.343   6.214 -0.0744 -0.5111 -0.0512
   37POPC   O12 4847   3.476   6.107   6.254  0.4644 -0.0868  0.5438
   37POPC   O11 4848   3.424   6.247   6.048  0.2991  0.7587  0.1800
   37POPC    C1 4849   3.342   6.145   5.988  0.3559  0.4000  0.4038
   37POPC    HA 4850   3.246   6.191   5.955  1.1281 -0.5347 -3.8240
   37POPC    HB 4851   3.314   6.060   6.054 -1.0903  0.1253 -0.5170
   37POPC    C2 4852   3.405   6.079   5.864  0.5175  0.2314 -0.5333
   37POPC    HS 4853   3.504   6.051   5.906  0.4236  0.0287 -0.4473
   37POPC   O21 4854   3.408   6.180   5.767  0.2353  0.1682  0.1162
   37POPC   C21 4855   3.526   6.195   5.700  0.0461 -0.2078 -0.1674
   37POPC   O22 4856   3.623   6.125   5.693  0.2938 -0.7327 -0.1960
   37POPC   C22 4857   3.503   6.335   5.640 -0.1394  0.3691  0.2292
   37POPC   H2R 4858   3.479   6.410   5.719  3.4050  3.6672 -1.4771
   37POPC   H2S 4859   3.414   6.332   5.575  1.4378  1.1453 -2.0845
   37POPC    C3 4860   3.332   5.958   5.815  0.2729 -0.0604  0.1607
   37POPC    HX 4861   3.245   5.996   5.756  0.1221  1.1857  1.1573
   37POPC    HY 4862   3.301   5.888   5.896  1.6387 -1.7481 -0.6849
   37POPC   O31 4863   3.401   5.879   5.708 -0.7057  0.3656  0.3880
   37POPC   C31 4864   3.485   5.791   5.758  0.7682 -0.5064  1.1239
   37POPC   O32 4865   3.520   5.789   5.873  0.1694 -0.4793 -0.4729
   37POPC   C32 4866   3.530   5.701   5.643 -0.4510 -0.3550  0.6001
   37POPC   H2X 4867   3.440   5.688   5.579 -0.5656 -1.1795  0.9181
   37POPC   H2Y 4868   3.561   5.606   5.691 -1.4813 -0.8931  0.2429
   37POPC   C23 4869   3.629   6.372   5.557  0.1069 -0.2475 -0.2862
   37POPC   H3R 4870   3.628   6.299   5.473 -2.0202  0.0069 -0.5333
   37POPC   H3S 4871   3.712   6.354   5.629 -0.9960  0.6523  1.2471
   37POPC   C24 4872   3.644   6.515   5.523 -0.0303  0.4531 -0.2868
   37POPC   H4R 4873   3.666   6.569   5.617 -2.8276 -0.3070  0.9047
   37POPC   H4S 4874   3.556   6.552   5.466  0.0622 -0.6711 -1.1939
   37POPC   C25 4875   3.763   6.532   5.416  0.1909  0.9165 -0.0880
   37POPC   H5R 4876   3.733   6.472   5.328  0.5467 -0.6102  0.7934
   37POPC   H5S 4877   3.859   6.500   5.461  0.1876  3.3828  1.9364
   37POPC   C26 4878   3.779   6.673   5.357 -0.5571  1.0473  0.0436
   37POPC   H6R 4879   3.869   6.674   5.292 -1.8298  1.1332 -1.8028
   37POPC   H6S 4880   3.804   6.732   5.448 -0.0439 -0.9681  1.2807
   37POPC   C27 4881   3.675   6.735   5.275 -0.1880 -0.7167 -1.2842
   37POPC   H7R 4882   3.583   6.746   5.335 -0.4482  0.6389 -1.8952
   37POPC   H7S 4883   3.644   6.671   5.189  1.4809 -0.8443 -1.8416
   37POPC   C28 4884   3.716   6.881   5.222 -0.2130  0.3042  0.0870
   37POPC   H8R 4885   3.816   6.881   5.173 -1.0058 -0.5644 -1.5819
   37POPC   H8S 4886   3.723   6.943   5.315 -0.0926  2.7196 -1.4373
   37POPC   C29 4887   3.624   6.957   5.125 -0.0533  0.1723 -0.0581
   37POPC   H91 4888   3.570   7.045   5.163  2.3443  1.9134 -0.3993
   37POPC  C210 4889   3.618   6.937   4.992  0.1085  0.1703  0.3493
   37POPC  H101 4890   3.537   6.976   4.927 -1.3374 -2.5690  0.3802
   37POPC  C211 4891   3.703   6.835   4.925 -0.1690 -0.0604  0.3830
   37POPC  H11R 4892   3.751   6.766   4.997  1.1426 -0.0283 -0.4291
   37POPC  H11S 4893   3.790   6.883   4.876  0.3549 -0.5404  0.8271
   37POPC  C212 4894   3.624   6.750   4.829  0.0639  0.7504 -0.1193
   37POPC  H12R 4895   3.693   6.691   4.765  0.4927 -0.4087  1.3510
   37POPC  H12S 4896   3.572   6.815   4.756 -1.7060 -1.6824 -1.1591
   37POPC  C213 4897   3.520   6.661   4.898 -0.1100  0.5285 -0.4973
   37POPC  H13R 4898   3.455   6.723   4.965 -0.3919 -0.1827 -0.1062
   37POPC  H13S 4899   3.582   6.588   4.954 -1.0028 -0.6573 -1.0197
   37POPC  C214 4900   3.423   6.593   4.790  0.4177 -0.1504  0.7747
   37POPC  H14R 4901   3.363   6.513   4.838 -0.3591 -0.1817 -0.2281
   37POPC  H14S 4902   3.503   6.542   4.732  1.8255  1.6281  1.0587
   37POPC  C215 4903   3.343   6.689   4.701 -0.9769 -0.0473 -0.1491
   37POPC  H15R 4904   3.400   6.733   4.616 -0.8004  0.3997  0.2001
   37POPC  H15S 4905   3.316   6.770   4.772  0.1799  0.8462 -0.6990
   37POPC  C216 4906   3.213   6.633   4.646  0.6422 -0.0312 -0.0743
   37POPC  H16R 4907   3.192   6.536   4.695 -0.9593 -0.0938 -0.8247
   37POPC  H16S 4908   3.226   6.621   4.536  1.4494  0.1034  0.0001
   37POPC  C217 4909   3.084   6.725   4.670 -0.6305  1.0153  0.2953
   37POPC  H17R 4910   3.105   6.829   4.639 -1.6217  1.8124  2.1597
   37POPC  H17S 4911   3.069   6.719   4.780 -1.5536  1.2671  0.1888
   37POPC  C218 4912   2.953   6.664   4.608  0.4775 -0.6261  0.2469
   37POPC  H18R 4913   2.927   6.565   4.652  2.1910 -2.0020 -1.6706
   37POPC  H18S 4914   2.965   6.658   4.498 -1.1730 -0.3792  0.0215
   37POPC  H18T 4915   2.867   6.732   4.631 -1.0593 -2.2967 -0.3067
   37POPC   C33 4916   3.649   5.762   5.557 -0.0237  0.0495 -0.4816
   37POPC   H3X 4917   3.734   5.787   5.625 -2.0761  2.6603  1.3461
   37POPC   H3Y 4918   3.610   5.858   5.516 -1.0926 -0.2208 -0.1243
   37POPC   C34 4919   3.684   5.665   5.442  0.1338  0.9851 -0.2780
   37POPC   H4X 4920   3.699   5.564   5.487  3.0571  0.8472 -1.2901
   37POPC   H4Y 4921   3.787   5.695   5.413  0.1604  0.8016 -0.3734
   37POPC   C35 4922   3.582   5.650   5.324 -0.5751 -0.0178 -0.3098
   37POPC   H5X 4923   3.484   5.629   5.372  0.9331 -3.2321  1.6585
   37POPC   H5Y 4924   3.602   5.568   5.252 -2.4513  1.5173 -2.7489
   37POPC   C36 4925   3.570   5.776   5.233 -0.2923  0.3941 -0.9497
   37POPC   H6X 4926   3.673   5.795   5.195 -0.4597  1.7152 -0.7696
   37POPC   H6Y 4927   3.532   5.870   5.278 -0.9448  0.4291 -1.5502
   37POPC   C37 4928   3.482   5.748   5.111  0.5984 -0.1095  0.6686
   37POPC   H7X 4929   3.376   5.737   5.143  0.4220  1.6897  0.8065
   37POPC   H7Y 4930   3.508   5.649   5.069  0.1199  0.2923 -0.6076
   37POPC   C38 4931   3.491   5.858   5.007  0.2196 -0.8558  0.8059
   37POPC   H8X 4932   3.599   5.883   4.996 -0.1074 -0.4916 -3.1978
   37POPC   H8Y 4933   3.429   5.946   5.031  0.1262 -0.6483 -0.1468
   37POPC   C39 4934   3.448   5.801   4.869 -0.2269 -0.0251 -0.3149
   37POPC   H9X 4935   3.341   5.774   4.877  0.1249 -1.0538  1.5578
   37POPC   H9Y 4936   3.495   5.702   4.851  2.8691  1.2855 -0.1191
   37POPC  C310 4937   3.485   5.901   4.759 -0.2889 -0.0493  0.5975
   37POPC  H10X 4938   3.594   5.925   4.755 -0.3286  0.1419 -3.4422
   37POPC  H10Y 4939   3.444   6.002   4.781  0.3076  0.2361  0.4098
   37POPC  C311 4940   3.432   5.864   4.618  0.3648  0.8127  0.4647
   37POPC  H11X 4941   3.470   5.762   4.592 -2.3612 -0.5821  1.5541
   37POPC  H11Y 4942   3.479   5.941   4.554  1.7427  0.8348  1.4591
   37POPC  C312 4943   3.280   5.864   4.612  0.1485  0.5102 -0.9081
   37POPC  H12X 4944   3.243   5.963   4.649  1.2874  0.4067  0.6145
   37POPC  H12Y 4945   3.230   5.791   4.679 -1.3975  3.5510  1.5167
   37POPC  C313 4946   3.232   5.830   4.472  0.3270  0.1175 -0.1062
   37POPC  H13X 4947   3.282   5.740   4.430  0.6032  1.0636 -1.8834
   37POPC  H13Y 4948   3.260   5.905   4.395 -0.5790 -0.0445 -0.6054
   37POPC  C314 4949   3.081   5.809   4.475  0.9455 -0.5858 -0.6483
   37POPC  H14X 4950   3.023   5.902   4.497  0.7131 -1.1362  1.1736
   37POPC  H14Y 4951   3.062   5.733   4.554  0.8869 -0.7082 -0.7787
   37POPC  C315 4952   3.028   5.741   4.353  0.5257 -0.1598  0.1488
   37POPC  H15X 4953   3.090   5.653   4.323 -0.1460 -1.6391  2.8338
   37POPC  H15Y 4954   3.029   5.808   4.264 -3.2058 -0.3827 -0.2095
   37POPC  C316 4955   2.883   5.696   4.362  0.3699 -0.0086 -0.3548
   37POPC  H16X 4956   2.870   5.590   4.392  1.3040 -0.1730 -0.4800
   37POPC  H16Y 4957   2.835   5.712   4.262  1.9252 -0.2646 -1.1782
   37POPC  H16Z 4958   2.825   5.757   4.434 -0.9703 -1.8102  0.1492
   38POPC     N 4959   4.894   3.981   6.366 -0.3558 -0.7271  0.2844
   38POPC   C12 4960   5.004   3.903   6.300  0.1271  0.3110  0.6171
   38POPC  H12A 4961   5.017   3.942   6.200  2.9088  1.9652  1.4960
   38POPC  H12B 4962   4.958   3.806   6.304  0.4985  0.0349 -0.9632
   38POPC   C13 4963   4.868   3.935   6.502 -0.0996  0.3667 -0.3708
   38POPC  H13A 4964   4.779   3.985   6.539 -1.1325  0.1428 -2.4109
   38POPC  H13B 4965   4.855   3.828   6.508  0.2509  0.3623  0.4761
   38POPC  H13C 4966   4.951   3.962   6.565 -1.3274  0.1496  1.4185
   38POPC   C14 4967   4.936   4.128   6.361  0.0367  0.3569 -0.6977
   38POPC  H14A 4968   4.886   4.185   6.439  2.2584  0.4673  0.7523
   38POPC  H14B 4969   5.040   4.139   6.389 -0.4368  1.9156  0.5830
   38POPC  H14C 4970   4.927   4.178   6.266  0.6352 -0.5535 -1.2413
   38POPC   C15 4971   4.767   3.959   6.286 -0.2933 -0.0023  0.4357
   38POPC  H15A 4972   4.779   3.996   6.186 -0.0790 -1.5767 -0.1458
   38POPC  H15B 4973   4.678   4.007   6.326 -0.9830 -1.2918  0.5129
   38POPC  H15C 4974   4.752   3.852   6.280  0.3193 -0.0159 -1.4380
   38POPC   C11 4975   5.142   3.892   6.361  0.0053 -0.2069  0.0168
   38POPC  H11A 4976   5.204   3.812   6.316 -0.4245  0.1422 -1.2315
   38POPC  H11B 4977   5.118   3.863   6.466 -1.3006  0.3601 -0.1069
   38POPC     P 4978   5.333   4.042   6.265 -0.0476  0.0769 -0.3394
   38POPC   O13 4979   5.440   3.939   6.297  0.2804 -0.7278  0.0382
   38POPC   O14 4980   5.371   4.186   6.283  0.4139  0.4953 -0.3815
   38POPC   O12 4981   5.213   4.009   6.357 -0.1618  0.0441  0.0980
   38POPC   O11 4982   5.280   4.021   6.118 -0.3928  0.0354 -0.4084
   38POPC    C1 4983   5.189   4.115   6.061 -0.1228  0.2387 -0.1956
   38POPC    HA 4984   5.169   4.203   6.125 -1.8353  0.4533 -0.9808
   38POPC    HB 4985   5.102   4.049   6.039  0.9299 -0.7211 -1.7771
   38POPC    C2 4986   5.238   4.173   5.924 -0.2386  0.6581 -0.1769
   38POPC    HS 4987   5.152   4.214   5.867  0.0161 -0.8966 -1.7754
   38POPC   O21 4988   5.309   4.078   5.841  0.2760  0.0498  0.2440
   38POPC   C21 4989   5.238   3.966   5.823 -0.5305  0.5751 -0.9566
   38POPC   O22 4990   5.115   3.962   5.829  0.6884 -0.7486 -0.1736
   38POPC   C22 4991   5.331   3.852   5.778  0.0664  0.1614  0.4862
   38POPC   H2R 4992   5.277   3.755   5.780 -3.1474  1.6983 -1.6347
   38POPC   H2S 4993   5.415   3.836   5.848  0.0992 -1.0921  0.1740
   38POPC    C3 4994   5.330   4.297   5.957 -0.9177  0.0498  0.3826
   38POPC    HX 4995   5.393   4.269   6.044 -3.9381 -3.3309  1.7555
   38POPC    HY 4996   5.263   4.381   5.987 -1.1009 -0.3142  1.0084
   38POPC   O31 4997   5.410   4.334   5.842 -0.0973 -0.3746 -0.5084
   38POPC   C31 4998   5.359   4.417   5.746  0.1654 -0.4240  1.0822
   38POPC   O32 4999   5.244   4.455   5.743  0.1200  0.2601 -0.0026
   38POPC   C32 5000   5.476   4.458   5.649 -0.0899 -0.0721  0.3617
   38POPC   H2X 5001   5.547   4.522   5.707  0.7012  0.8684 -1.5463
   38POPC   H2Y 5002   5.424   4.514   5.568 -0.0215 -0.3848  0.0992
   38POPC   C23 5003   5.374   3.881   5.630  0.1138 -0.1611  0.0142
   38POPC   H3R 5004   5.412   3.985   5.620 -0.7266  0.1462 -0.1006
   38POPC   H3S 5005   5.293   3.887   5.554  1.1311 -0.7888 -1.1542
   38POPC   C24 5006   5.480   3.786   5.573  0.4230  0.5647 -0.1961
   38POPC   H4R 5007   5.453   3.680   5.595 -0.0181  0.4326 -1.2841
   38POPC   H4S 5008   5.574   3.811   5.626  1.2974  1.5785 -2.1081
   38POPC   C25 5009   5.513   3.815   5.422  0.7076  0.5444 -0.3574
   38POPC   H5R 5010   5.524   3.924   5.407  0.4815  0.4727 -1.0900
   38POPC   H5S 5011   5.419   3.783   5.372  1.0477  0.2821 -0.8368
   38POPC   C26 5012   5.641   3.746   5.380 -0.0683  0.6932  0.1778
   38POPC   H6R 5013   5.638   3.641   5.417  2.0408  0.1562 -1.0526
   38POPC   H6S 5014   5.728   3.790   5.433 -0.0216  0.5531  0.2193
   38POPC   C27 5015   5.669   3.749   5.228 -0.3154  0.0015 -0.0486
   38POPC   H7R 5016   5.610   3.665   5.186 -0.0323 -0.3386  0.2218
   38POPC   H7S 5017   5.776   3.723   5.215 -0.3730 -0.0441 -0.4254
   38POPC   C28 5018   5.661   3.888   5.158  0.6657 -0.1460 -0.4174
   38POPC   H8R 5019   5.556   3.924   5.160  0.7395  0.1682 -1.5044
   38POPC   H8S 5020   5.679   3.879   5.049  1.7426  0.9740 -0.3559
   38POPC   C29 5021   5.751   3.996   5.220 -0.2066 -0.0761  0.1291
   38POPC   H91 5022   5.717   4.042   5.314 -0.9527  1.0052 -0.6458
   38POPC  C210 5023   5.870   4.031   5.173  0.3782 -0.4308 -0.4543
   38POPC  H101 5024   5.925   4.112   5.223 -1.4165  0.1822  0.6300
   38POPC  C211 5025   5.941   3.969   5.058  0.7996 -0.1840  0.3565
   38POPC  H11R 5026   6.042   4.015   5.061  1.0960 -0.8193  3.0606
   38POPC  H11S 5027   5.891   4.010   4.968  0.7008  1.5625  1.1672
   38POPC  C212 5028   5.960   3.821   5.039 -0.3118  0.4451 -0.4336
   38POPC  H12R 5029   5.868   3.771   5.002  0.8474 -0.9138 -1.5997
   38POPC  H12S 5030   5.988   3.779   5.138  2.1331  1.8140 -0.4821
   38POPC  C213 5031   6.073   3.785   4.947 -0.8468  0.2332  0.1287
   38POPC  H13R 5032   6.167   3.790   5.005  0.4996  0.2969 -1.9373
   38POPC  H13S 5033   6.074   3.850   4.856  2.6940  0.0007 -0.1497
   38POPC  C214 5034   6.057   3.637   4.893  0.7595  0.0261  0.1235
   38POPC  H14R 5035   5.960   3.632   4.838 -1.0755 -1.0766  3.2184
   38POPC  H14S 5036   6.051   3.568   4.979 -2.8618  0.0904  0.0965
   38POPC  C215 5037   6.171   3.595   4.798 -0.1812 -0.4354 -0.0666
   38POPC  H15R 5038   6.260   3.585   4.863 -1.6201 -1.3961  1.8759
   38POPC  H15S 5039   6.193   3.671   4.720  0.1151 -2.3829 -1.9571
   38POPC  C216 5040   6.143   3.461   4.721  0.4971 -0.1722 -0.4717
   38POPC  H16R 5041   6.231   3.427   4.664  0.6198 -2.3453  0.8976
   38POPC  H16S 5042   6.056   3.470   4.652  0.4420  1.2505 -0.2606
   38POPC  C217 5043   6.127   3.359   4.834  0.5577 -0.2462 -0.0665
   38POPC  H17R 5044   6.033   3.379   4.890  0.5281 -2.7453  0.9106
   38POPC  H17S 5045   6.219   3.364   4.895  1.0597 -2.4373 -0.5513
   38POPC  C218 5046   6.111   3.218   4.773 -0.4113 -0.4872 -0.5289
   38POPC  H18R 5047   6.030   3.220   4.697 -0.0664  1.3226 -0.9086
   38POPC  H18S 5048   6.075   3.143   4.847 -0.8109 -0.5383 -0.7693
   38POPC  H18T 5049   6.198   3.173   4.721 -0.0180  0.0513 -0.3488
   38POPC   C33 5050   5.555   4.335   5.596  0.4144  0.4549  0.4551
   38POPC   H3X 5051   5.550   4.249   5.666 -0.7627 -2.4787 -2.9480
   38POPC   H3Y 5052   5.660   4.369   5.588  0.0718  1.6123  0.6986
   38POPC   C34 5053   5.502   4.289   5.458  0.7125 -0.6817 -0.0940
   38POPC   H4X 5054   5.392   4.297   5.461  0.7326 -0.3856 -0.1100
   38POPC   H4Y 5055   5.533   4.184   5.441 -1.1952 -1.3538  0.4082
   38POPC   C35 5056   5.542   4.367   5.331  0.5132 -0.1247  0.2402
   38POPC   H5X 5057   5.652   4.355   5.331  0.4235 -1.0726 -0.6466
   38POPC   H5Y 5058   5.509   4.473   5.334  0.7458 -0.0359 -0.2787
   38POPC   C36 5059   5.491   4.315   5.193 -0.3479 -0.2973  0.1427
   38POPC   H6X 5060   5.381   4.317   5.209 -0.0855  0.2169  2.1904
   38POPC   H6Y 5061   5.531   4.213   5.174  1.6443  0.7558 -1.6997
   38POPC   C37 5062   5.520   4.403   5.076 -0.3512 -0.8296  0.1809
   38POPC   H7X 5063   5.629   4.424   5.066 -0.5432 -0.5672 -1.7814
   38POPC   H7Y 5064   5.478   4.503   5.098  1.9166  0.3313 -0.4353
   38POPC   C38 5065   5.470   4.346   4.939 -0.2003 -0.1070 -0.1348
   38POPC   H8X 5066   5.360   4.328   4.939  0.0043 -1.5790  1.2238
   38POPC   H8Y 5067   5.515   4.247   4.917 -0.3410 -1.1173  3.4586
   38POPC   C39 5068   5.514   4.439   4.822  0.3680 -0.1900 -0.1085
   38POPC   H9X 5069   5.624   4.454   4.821  0.5137 -0.9115 -2.8313
   38POPC   H9Y 5070   5.452   4.531   4.824  0.5895 -0.0465  1.4653
   38POPC  C310 5071   5.486   4.382   4.681  0.0131 -0.3560 -0.1877
   38POPC  H10X 5072   5.375   4.377   4.676 -0.1720  0.5768  1.9907
   38POPC  H10Y 5073   5.508   4.276   4.656 -0.0696  0.0746 -2.2898
   38POPC  C311 5074   5.525   4.472   4.562  0.3440  0.2205 -0.6954
   38POPC  H11X 5075   5.630   4.454   4.533  0.4739  2.1540 -1.5925
   38POPC  H11Y 5076   5.510   4.579   4.586  1.0489  1.1558 -3.9050
   38POPC  C312 5077   5.450   4.437   4.436 -0.1350 -0.4985  0.0923
   38POPC  H12X 5078   5.343   4.440   4.465 -0.3837  1.8672 -0.8794
   38POPC  H12Y 5079   5.470   4.330   4.409 -1.8842 -1.9112  3.7997
   38POPC  C313 5080   5.484   4.518   4.301  0.2981  0.1136  0.3530
   38POPC  H13X 5081   5.593   4.527   4.286  0.1269 -0.0773 -1.1097
   38POPC  H13Y 5082   5.440   4.620   4.303 -0.0695 -0.0143 -0.8214
   38POPC  C314 5083   5.431   4.448   4.173  0.2033 -0.0145 -0.2925
   38POPC  H14X 5084   5.323   4.428   4.159  0.1596  1.3921 -2.4285
   38POPC  H14Y 5085   5.475   4.347   4.157 -2.3138 -1.1922 -0.1631
   38POPC  C315 5086   5.472   4.524   4.043 -0.1353 -0.7168 -0.6958
   38POPC  H15X 5087   5.581   4.549   4.044  0.0358 -1.3483  1.4460
   38POPC  H15Y 5088   5.411   4.617   4.040 -1.7590 -1.7228 -0.1210
   38POPC  C316 5089   5.444   4.447   3.913 -0.0992 -0.2483 -0.7771
   38POPC  H16X 5090   5.444   4.337   3.932 -2.8632 -0.6053 -2.4040
   38POPC  H16Y 5091   5.526   4.464   3.840 -0.2927  0.3512 -0.8590
   38POPC  H16Z 5092   5.347   4.479   3.869 -1.3067 -3.1678 -0.4483
   39POPC     N 5093   0.139   2.409   6.397 -0.2970 -0.6118  0.2162
   39POPC   C12 5094   0.061   2.434   6.265 -0.5847 -0.0399  0.3270
   39POPC  H12A 5095   0.029   2.338   6.227  0.3291 -1.2832  2.5182
   39POPC  H12B 5096   0.133   2.479   6.198 -0.3292 -1.0667 -0.1007
   39POPC   C13 5097   0.247   2.312   6.376 -0.3198  0.4209  0.2993
   39POPC  H13A 5098   0.305   2.323   6.286 -0.4769 -1.3182 -0.0475
   39POPC  H13B 5099   0.301   2.299   6.469 -1.4724  1.7511  1.2020
   39POPC  H13C 5100   0.201   2.218   6.353 -0.6570  0.3767  1.1025
   39POPC   C14 5101   0.206   2.535   6.440  0.1831  0.0597  0.6151
   39POPC  H14A 5102   0.244   2.531   6.541  0.2744  0.5891  0.6030
   39POPC  H14B 5103   0.286   2.566   6.374  1.7985 -2.9661  0.9575
   39POPC  H14C 5104   0.130   2.611   6.452  0.6852  0.8163 -0.7800
   39POPC   C15 5105   0.050   2.361   6.505  0.2396 -0.3767 -0.3079
   39POPC  H15A 5106  -0.040   2.421   6.501  0.3940 -0.1843 -0.8454
   39POPC  H15B 5107   0.097   2.352   6.602 -1.1189 -1.9139  0.2724
   39POPC  H15C 5108   0.014   2.264   6.473  0.6293 -0.4418 -0.5543
   39POPC   C11 5109  -0.060   2.539   6.274 -0.3697  0.0117  0.1215
   39POPC  H11A 5110  -0.085   2.603   6.186  1.7967  0.0755 -0.5100
   39POPC  H11B 5111  -0.012   2.616   6.339  2.6133  0.3043 -2.2249
   39POPC     P 5112  -0.274   2.380   6.228 -0.0433  0.4852  0.4475
   39POPC   O13 5113  -0.401   2.365   6.297 -0.1837  0.5964  0.1670
   39POPC   O14 5114  -0.203   2.253   6.195 -0.1071  0.1940  0.7301
   39POPC   O12 5115  -0.176   2.470   6.314 -0.3593  0.3566  0.4939
   39POPC   O11 5116  -0.302   2.449   6.096  0.4897  0.0972 -0.1496
   39POPC    C1 5117  -0.422   2.418   6.023  0.4008  0.0798  0.0949
   39POPC    HA 5118  -0.510   2.458   6.080  1.4463  0.9747  1.1401
   39POPC    HB 5119  -0.445   2.310   6.013  0.5181  0.1646 -1.1733
   39POPC    C2 5120  -0.405   2.477   5.880 -0.1172 -0.3584 -0.3665
   39POPC    HS 5121  -0.495   2.451   5.819  0.2473  1.1105 -1.6094
   39POPC   O21 5122  -0.289   2.417   5.811  0.3675 -0.1815  0.1899
   39POPC   C21 5123  -0.310   2.295   5.774 -0.1856 -0.5849  1.0786
   39POPC   O22 5124  -0.408   2.229   5.798 -0.2651 -0.4662 -0.1087
   39POPC   C22 5125  -0.188   2.254   5.692  0.2171 -1.0466  0.4632
   39POPC   H2R 5126  -0.090   2.300   5.719  0.1487 -0.1945 -0.6538
   39POPC   H2S 5127  -0.207   2.302   5.593  0.7495 -0.3825  0.6695
   39POPC    C3 5128  -0.391   2.627   5.879 -0.0035 -0.1650 -0.0007
   39POPC    HX 5129  -0.297   2.650   5.933  0.6012 -0.4338 -0.9207
   39POPC    HY 5130  -0.472   2.675   5.939  0.6706  1.4208 -0.3066
   39POPC   O31 5131  -0.395   2.674   5.742 -0.7097 -0.6199  0.1366
   39POPC   C31 5132  -0.505   2.723   5.692  0.2210 -0.2424  0.0576
   39POPC   O32 5133  -0.617   2.697   5.733  0.7090 -0.2541 -0.1784
   39POPC   C32 5134  -0.464   2.804   5.569  0.0266  0.3906  0.2612
   39POPC   H2X 5135  -0.388   2.749   5.510 -0.7717  0.3656 -0.7627
   39POPC   H2Y 5136  -0.411   2.896   5.601  0.5022  0.5706 -0.9910
   39POPC   C23 5137  -0.175   2.104   5.669  0.2286  0.3265 -0.9701
   39POPC   H3R 5138  -0.277   2.061   5.656  1.6677 -3.3367 -1.2760
   39POPC   H3S 5139  -0.146   2.059   5.767 -0.0089  1.7638 -0.2041
   39POPC   C24 5140  -0.081   2.068   5.559 -0.1340  0.6553  0.6023
   39POPC   H4R 5141  -0.086   1.957   5.559 -0.6274  0.6749 -0.1339
   39POPC   H4S 5142   0.027   2.085   5.576  0.2363  0.9292 -1.7846
   39POPC   C25 5143  -0.123   2.114   5.418 -0.3346  0.3213 -0.1091
   39POPC   H5R 5144  -0.060   2.204   5.404  0.6811  0.2788  3.2072
   39POPC   H5S 5145  -0.232   2.131   5.429 -0.4355 -0.5142  0.2675
   39POPC   C26 5146  -0.100   1.996   5.318  0.5257  0.0125  0.8866
   39POPC   H6R 5147  -0.148   1.904   5.356 -1.7592  0.5978 -0.3654
   39POPC   H6S 5148   0.009   1.982   5.327  0.9600  0.4369 -2.4377
   39POPC   C27 5149  -0.147   2.025   5.177 -0.2587 -0.1931  0.0912
   39POPC   H7R 5150  -0.256   2.004   5.173 -0.0433 -1.3269 -0.3191
   39POPC   H7S 5151  -0.107   1.953   5.103 -1.1563  0.3182 -0.9151
   39POPC   C28 5152  -0.131   2.173   5.127 -0.5703 -0.2796  0.2750
   39POPC   H8R 5153  -0.182   2.241   5.198  1.4666  0.6062  0.9580
   39POPC   H8S 5154  -0.185   2.186   5.031 -1.4714  0.5935  0.8897
   39POPC   C29 5155   0.008   2.225   5.117  1.0228 -0.0844 -0.4180
   39POPC   H91 5156   0.092   2.154   5.118  2.1338  1.0135 -3.6362
   39POPC  C210 5157   0.036   2.361   5.117 -1.0590  0.5144  0.3834
   39POPC  H101 5158   0.141   2.393   5.124 -1.0964  0.2488  3.9084
   39POPC  C211 5159  -0.059   2.474   5.107 -0.5220  0.3481 -0.0851
   39POPC  H11R 5160  -0.158   2.433   5.078 -0.8494  1.0036  0.1006
   39POPC  H11S 5161  -0.019   2.531   5.020  3.0439 -1.2239  0.3445
   39POPC  C212 5162  -0.089   2.558   5.234  0.0130  0.0411 -0.6260
   39POPC  H12R 5163  -0.185   2.609   5.213  0.4114  0.7379 -0.8015
   39POPC  H12S 5164  -0.026   2.650   5.231  0.0055  0.0959  0.5193
   39POPC  C213 5165  -0.088   2.493   5.373 -0.2793  0.4136 -0.2717
   39POPC  H13R 5166  -0.002   2.427   5.395 -2.3317 -2.2394  0.2863
   39POPC  H13S 5167  -0.175   2.425   5.368 -0.4442  0.4213  1.7583
   39POPC  C214 5168  -0.123   2.587   5.487 -0.1531 -0.1544 -0.0462
   39POPC  H14R 5169  -0.153   2.537   5.581  0.1472  2.1346  1.3516
   39POPC  H14S 5170  -0.217   2.643   5.469  0.6424  1.6415  1.0767
   39POPC  C215 5171  -0.012   2.693   5.512  0.0730 -0.4496 -0.1570
   39POPC  H15R 5172  -0.038   2.796   5.478 -0.0392  0.0891  1.4952
   39POPC  H15S 5173   0.078   2.669   5.451  0.6556  1.1935 -0.0052
   39POPC  C216 5174   0.034   2.693   5.657 -0.2057  0.3717 -0.4360
   39POPC  H16R 5175   0.125   2.631   5.662 -1.1960 -1.0252  2.1394
   39POPC  H16S 5176  -0.050   2.649   5.716 -0.6317 -0.6720 -1.7835
   39POPC  C217 5177   0.074   2.832   5.709  0.6618  0.0708 -0.3514
   39POPC  H17R 5178   0.150   2.880   5.643 -0.6460  1.6120 -0.8186
   39POPC  H17S 5179   0.122   2.807   5.806  1.3097 -2.1562 -1.1938
   39POPC  C218 5180  -0.045   2.926   5.734 -0.2658  0.2207 -0.2740
   39POPC  H18R 5181  -0.007   3.009   5.796 -1.5876  1.2403 -0.7945
   39POPC  H18S 5182  -0.121   2.888   5.805  1.2702 -0.3369  1.1539
   39POPC  H18T 5183  -0.089   2.951   5.636  1.3572 -2.2551 -1.7622
   39POPC   C33 5184  -0.578   2.840   5.474 -0.1685  0.4142 -0.5934
   39POPC   H3X 5185  -0.643   2.754   5.446  0.8184 -0.4171 -0.3650
   39POPC   H3Y 5186  -0.549   2.874   5.372 -1.2340 -0.4659 -1.2055
   39POPC   C34 5187  -0.657   2.968   5.532  0.1410  0.9242  0.3676
   39POPC   H4X 5188  -0.589   3.055   5.542  1.6803 -0.1465 -0.3007
   39POPC   H4Y 5189  -0.700   2.936   5.629  1.5673 -2.0182  0.1626
   39POPC   C35 5190  -0.770   3.019   5.439  0.2774 -0.5614 -0.7138
   39POPC   H5X 5191  -0.729   3.074   5.352 -2.3349  1.0774 -1.0047
   39POPC   H5Y 5192  -0.834   3.086   5.500  2.4872 -0.3268  1.4948
   39POPC   C36 5193  -0.853   2.911   5.377  0.1633 -0.0581  0.7432
   39POPC   H6X 5194  -0.864   2.817   5.434 -1.1940  0.0043  0.6063
   39POPC   H6Y 5195  -0.792   2.880   5.289  2.0933  2.8788  0.9040
   39POPC   C37 5196  -0.990   2.963   5.315  0.3572  0.0838 -0.2251
   39POPC   H7X 5197  -0.965   3.043   5.242  0.0335 -0.2708 -0.7367
   39POPC   H7Y 5198  -1.048   3.021   5.390  0.8768  1.3219 -0.7543
   39POPC   C38 5199  -1.075   2.864   5.243  0.2787 -0.4859 -0.3959
   39POPC   H8X 5200  -1.113   2.787   5.314 -1.5076  1.9762  1.4878
   39POPC   H8Y 5201  -1.024   2.804   5.164 -0.8452  1.2459 -2.5460
   39POPC   C39 5202  -1.203   2.922   5.180 -0.4299 -0.1584 -0.1096
   39POPC   H9X 5203  -1.269   2.949   5.265  1.0136 -0.3935  1.1435
   39POPC   H9Y 5204  -1.259   2.836   5.137  1.1437 -1.1349 -0.2889
   39POPC  C310 5205  -1.180   3.032   5.079  1.1713 -0.3395 -0.8583
   39POPC  H10X 5206  -1.133   3.115   5.136 -1.3209  0.8190 -0.3447
   39POPC  H10Y 5207  -1.283   3.072   5.063  0.7367 -0.6625  0.9409
   39POPC  C311 5208  -1.119   2.986   4.953  0.0239  0.7289 -0.0796
   39POPC  H11X 5209  -1.168   2.894   4.915 -0.3391  1.1870 -0.7534
   39POPC  H11Y 5210  -1.009   2.968   4.957  0.0824  0.4156 -1.9618
   39POPC  C312 5211  -1.127   3.098   4.846 -0.6239  0.0520  0.6328
   39POPC  H12X 5212  -1.074   3.185   4.892  1.3039 -1.6888  1.9335
   39POPC  H12Y 5213  -1.232   3.132   4.837 -0.8607 -0.8741 -0.1702
   39POPC  C313 5214  -1.069   3.059   4.705  0.1432  0.4699  0.6869
   39POPC  H13X 5215  -1.130   2.977   4.661  0.3967  1.0970 -0.9082
   39POPC  H13Y 5216  -0.963   3.031   4.722 -0.3163  0.2656  3.8730
   39POPC  C314 5217  -1.091   3.170   4.595  0.0585 -0.3142  0.5032
   39POPC  H14X 5218  -1.190   3.159   4.545  0.1657  0.5575  0.0842
   39POPC  H14Y 5219  -1.015   3.140   4.519  0.1205  0.3425  0.2995
   39POPC  C315 5220  -1.063   3.311   4.650 -0.1365  0.5168 -0.0313
   39POPC  H15X 5221  -0.968   3.305   4.707 -1.2893 -2.8472  1.8258
   39POPC  H15Y 5222  -1.133   3.347   4.729 -0.5143 -0.6520  0.1839
   39POPC  C316 5223  -1.047   3.423   4.547  0.7979 -0.5564 -0.0137
   39POPC  H16X 5224  -1.019   3.516   4.600 -0.2539 -0.5380  0.5404
   39POPC  H16Y 5225  -1.143   3.426   4.491  0.5035 -1.4238  0.4188
   39POPC  H16Z 5226  -0.977   3.399   4.464 -0.7067 -1.6491 -1.0292
   40POPC     N 5227   0.655   2.989   6.260  0.2146  0.3817 -0.3613
   40POPC   C12 5228   0.598   3.069   6.144  0.0805  0.0313 -0.2380
   40POPC  H12A 5229   0.678   3.114   6.087  0.0247  0.4931  0.0426
   40POPC  H12B 5230   0.529   3.141   6.185 -1.3051 -0.6630 -1.2857
   40POPC   C13 5231   0.727   2.871   6.207  0.3813 -1.3144 -0.7216
   40POPC  H13A 5232   0.734   2.793   6.281 -1.5756 -1.9089 -1.0989
   40POPC  H13B 5233   0.673   2.826   6.124 -1.8066  0.2720 -0.2171
   40POPC  H13C 5234   0.827   2.901   6.179  0.1555  1.8834  1.4456
   40POPC   C14 5235   0.751   3.062   6.352  0.2402 -0.4804  0.1887
   40POPC  H14A 5236   0.845   3.080   6.302  0.5581 -2.9969 -0.2643
   40POPC  H14B 5237   0.713   3.158   6.383  2.5796  0.7477 -0.5028
   40POPC  H14C 5238   0.765   2.997   6.437  1.0272 -2.2776 -1.2561
   40POPC   C15 5239   0.545   2.931   6.341 -0.1565 -0.2796 -0.8329
   40POPC  H15A 5240   0.493   2.867   6.271 -1.6920  0.8939 -0.8128
   40POPC  H15B 5241   0.473   3.003   6.377 -2.3745 -2.1137 -1.3514
   40POPC  H15C 5242   0.582   2.875   6.425 -1.3009  2.1612  1.4400
   40POPC   C11 5243   0.528   2.994   6.032  0.3130 -0.5001 -0.2940
   40POPC  H11A 5244   0.575   2.895   6.010 -0.1182 -0.8528  0.3491
   40POPC  H11B 5245   0.541   3.060   5.944 -1.6833  1.8129  1.0089
   40POPC     P 5246   0.279   3.075   6.022  0.1307 -0.6835 -0.1381
   40POPC   O13 5247   0.314   3.203   6.089 -0.0872 -0.5186  0.2699
   40POPC   O14 5248   0.145   3.016   6.054  0.1926  0.0992 -0.4364
   40POPC   O12 5249   0.391   2.973   6.057  0.1675  0.8765 -0.3269
   40POPC   O11 5250   0.298   3.086   5.868 -0.1663 -0.0297  0.0887
   40POPC    C1 5251   0.246   3.209   5.808  0.2693 -0.4424 -0.5449
   40POPC    HA 5252   0.284   3.301   5.857  0.1899 -0.5755 -0.2296
   40POPC    HB 5253   0.137   3.207   5.791  0.1910  1.9955 -0.6524
   40POPC    C2 5254   0.303   3.223   5.659 -0.3671  1.1258 -0.3415
   40POPC    HS 5255   0.299   3.326   5.617 -0.0217  2.4613  2.6773
   40POPC   O21 5256   0.265   3.116   5.569  0.0387 -0.0233  0.1200
   40POPC   C21 5257   0.162   3.150   5.501  0.4467 -0.0368  0.3319
   40POPC   O22 5258   0.081   3.237   5.532 -0.6838 -0.7997  0.1904
   40POPC   C22 5259   0.175   3.073   5.366 -0.5734  0.5850 -0.5672
   40POPC   H2R 5260   0.214   2.972   5.389 -1.5904 -0.1099 -1.7488
   40POPC   H2S 5261   0.251   3.121   5.300 -0.4303  0.3196 -0.5969
   40POPC    C3 5262   0.454   3.226   5.671  0.0074 -0.3512  0.4422
   40POPC    HX 5263   0.496   3.133   5.715  0.3097 -0.2696  0.3308
   40POPC    HY 5264   0.490   3.301   5.744  3.9311  0.5984 -2.1296
   40POPC   O31 5265   0.511   3.255   5.540  0.3450 -0.5477 -0.8813
   40POPC   C31 5266   0.541   3.149   5.465  0.6028 -0.1517  0.4139
   40POPC   O32 5267   0.526   3.032   5.492 -0.4359 -0.1063  0.0859
   40POPC   C32 5268   0.581   3.202   5.323 -0.1465  0.0480 -0.2143
   40POPC   H2X 5269   0.688   3.231   5.330  0.1905 -1.3178  0.8108
   40POPC   H2Y 5270   0.512   3.283   5.289 -0.2532 -0.0539 -0.2416
   40POPC   C23 5271   0.041   3.063   5.293  0.5664 -0.4930  0.6497
   40POPC   H3R 5272   0.011   3.168   5.275 -0.1017 -0.6213  0.9999
   40POPC   H3S 5273  -0.035   3.008   5.352 -0.3096  0.3339  0.3160
   40POPC   C24 5274   0.057   2.987   5.162  0.2921  0.0418 -0.4035
   40POPC   H4R 5275   0.123   2.899   5.175  1.3643  0.5692 -1.9543
   40POPC   H4S 5276   0.097   3.048   5.078 -3.4229  2.3801 -0.6749
   40POPC   C25 5277  -0.080   2.949   5.104  0.5536  0.3500  0.0320
   40POPC   H5R 5278  -0.124   3.045   5.070  0.6609  0.4699  0.2313
   40POPC   H5S 5279  -0.133   2.898   5.188  0.9157  1.5943  1.0445
   40POPC   C26 5280  -0.088   2.859   4.981  0.0302  0.2682  0.3208
   40POPC   H6R 5281  -0.046   2.757   4.996  1.3169  0.9350  1.4221
   40POPC   H6S 5282  -0.030   2.906   4.899 -0.5167  1.0181  0.3535
   40POPC   C27 5283  -0.234   2.831   4.928 -0.4240 -0.0560  0.1322
   40POPC   H7R 5284  -0.272   2.917   4.869  0.7197 -0.3066 -1.0006
   40POPC   H7S 5285  -0.300   2.822   5.018  2.0313  1.0028  2.1497
   40POPC   C28 5286  -0.263   2.703   4.833 -0.2085  0.0610  0.0729
   40POPC   H8R 5287  -0.372   2.687   4.815  0.1190 -0.1190 -2.0676
   40POPC   H8S 5288  -0.218   2.625   4.898  0.7963 -0.9750 -1.7850
   40POPC   C29 5289  -0.190   2.693   4.704  0.6853  0.2608  0.3425
   40POPC   H91 5290  -0.151   2.792   4.675 -0.7991  0.4342 -1.2112
   40POPC  C210 5291  -0.140   2.582   4.640  0.2346  0.0114  0.7677
   40POPC  H101 5292  -0.088   2.592   4.544  0.3702  1.5324  0.9704
   40POPC  C211 5293  -0.166   2.436   4.688  0.5258 -0.7640 -0.2767
   40POPC  H11R 5294  -0.234   2.383   4.618  1.3745 -0.5804 -1.2560
   40POPC  H11S 5295  -0.219   2.416   4.784 -1.8531 -1.4910 -1.6352
   40POPC  C212 5296  -0.034   2.360   4.677  0.1006 -0.7110  0.4062
   40POPC  H12R 5297   0.042   2.409   4.742  0.0040  1.7774 -1.1991
   40POPC  H12S 5298  -0.001   2.353   4.571  0.7615 -0.1565  0.5651
   40POPC  C213 5299  -0.038   2.214   4.723  0.4278  0.2503  0.2741
   40POPC  H13R 5300  -0.123   2.162   4.675 -1.7657  4.5759 -1.0452
   40POPC  H13S 5301  -0.069   2.217   4.830 -0.3708  0.0387  0.0518
   40POPC  C214 5302   0.094   2.143   4.711 -0.1900  0.0439  0.1100
   40POPC  H14R 5303   0.178   2.208   4.745 -0.5530  0.5821 -0.0115
   40POPC  H14S 5304   0.113   2.126   4.603  0.1823  2.8139 -0.3312
   40POPC  C215 5305   0.091   2.005   4.780 -0.6472 -0.4255 -0.1663
   40POPC  H15R 5306  -0.005   1.960   4.750 -0.9913  0.9985 -1.3251
   40POPC  H15S 5307   0.102   2.008   4.891  1.6463 -0.4843 -0.3339
   40POPC  C216 5308   0.200   1.906   4.731  0.9362 -0.1629 -0.0376
   40POPC  H16R 5309   0.300   1.950   4.747  0.3933  2.1331 -2.3084
   40POPC  H16S 5310   0.184   1.903   4.621 -4.1154 -2.4392  0.4709
   40POPC  C217 5311   0.186   1.763   4.790  0.1489 -0.0094  0.1029
   40POPC  H17R 5312   0.282   1.710   4.774 -0.2345 -0.3896 -1.1028
   40POPC  H17S 5313   0.102   1.702   4.750 -1.1460 -0.0901  2.7361
   40POPC  C218 5314   0.163   1.765   4.941  0.3395  0.4481 -0.3217
   40POPC  H18R 5315   0.196   1.671   4.991  0.5931  0.6602 -0.0944
   40POPC  H18S 5316   0.057   1.784   4.968  0.0328 -1.4116 -0.0244
   40POPC  H18T 5317   0.229   1.843   4.983  0.6712  0.7126 -1.3136
   40POPC   C33 5318   0.570   3.091   5.214  0.3052 -0.2199 -0.1244
   40POPC   H3X 5319   0.461   3.074   5.195  0.5695  0.6395 -3.0034
   40POPC   H3Y 5320   0.623   2.997   5.239 -0.2819 -0.2133  1.2554
   40POPC   C34 5321   0.633   3.141   5.083  0.1767 -0.0870 -0.1226
   40POPC   H4X 5322   0.739   3.173   5.091 -0.7912  3.1753  1.1959
   40POPC   H4Y 5323   0.582   3.235   5.055  2.9259  1.2497 -1.0561
   40POPC   C35 5324   0.608   3.047   4.965  0.5120  0.2116 -0.0897
   40POPC   H5X 5325   0.504   3.007   4.969  0.8267 -1.0872 -2.6503
   40POPC   H5Y 5326   0.674   2.959   4.977  1.6063  1.0394  0.0589
   40POPC   C36 5327   0.632   3.121   4.831 -0.4442  0.7254 -0.6796
   40POPC   H6X 5328   0.743   3.124   4.819 -0.3726  0.1724 -0.1896
   40POPC   H6Y 5329   0.611   3.229   4.845 -0.6607  0.6572 -0.4639
   40POPC   C37 5330   0.583   3.049   4.707  0.2434 -0.3425 -0.0255
   40POPC   H7X 5331   0.472   3.049   4.714  0.2447  0.5090  0.0361
   40POPC   H7Y 5332   0.609   2.941   4.707 -0.3252 -0.4839  0.0647
   40POPC   C38 5333   0.632   3.113   4.581 -0.9020  0.4087 -0.1558
   40POPC   H8X 5334   0.742   3.110   4.569 -1.0613  0.3843 -1.9706
   40POPC   H8Y 5335   0.597   3.219   4.580  0.3647  0.8928  1.7171
   40POPC   C39 5336   0.578   3.051   4.454  0.2250  0.1207 -0.2686
   40POPC   H9X 5337   0.467   3.060   4.453  0.0293 -1.7251 -1.6274
   40POPC   H9Y 5338   0.602   2.943   4.470 -1.8014 -0.1913  1.1070
   40POPC  C310 5339   0.645   3.124   4.336  0.0248  0.6124 -0.0501
   40POPC  H10X 5340   0.756   3.128   4.344 -0.0086  1.3184  0.1291
   40POPC  H10Y 5341   0.610   3.229   4.335 -0.1118  0.5686 -1.5570
   40POPC  C311 5342   0.595   3.051   4.215 -0.1180 -0.1192  0.7197
   40POPC  H11X 5343   0.484   3.054   4.213 -0.1137  1.2145 -1.7479
   40POPC  H11Y 5344   0.616   2.943   4.206 -3.6652 -0.9453  0.9431
   40POPC  C312 5345   0.661   3.110   4.092  0.1033 -0.1487 -0.4873
   40POPC  H12X 5346   0.638   3.216   4.067  0.9999  0.0685 -0.4398
   40POPC  H12Y 5347   0.628   3.064   3.997  3.1859 -0.4390 -1.5364
   40POPC  C313 5348   0.821   3.100   4.087 -0.2245 -0.2286  0.1851
   40POPC  H13X 5349   0.873   3.159   4.166 -0.3438 -0.0666  0.1442
   40POPC  H13Y 5350   0.852   3.154   3.995 -0.9195  3.7956  2.0882
   40POPC  C314 5351   0.898   2.965   4.087 -0.0547  0.3667 -1.0477
   40POPC  H14X 5352   0.870   2.905   3.997  0.5937 -0.7995 -0.4902
   40POPC  H14Y 5353   0.887   2.917   4.186  0.0936 -1.7706 -2.0173
   40POPC  C315 5354   1.048   2.977   4.056  0.1938 -0.1994  0.4008
   40POPC  H15X 5355   1.090   3.033   4.142 -2.5084 -0.5630  2.0771
   40POPC  H15Y 5356   1.069   3.026   3.958 -3.7756 -0.3671 -0.6836
   40POPC  C316 5357   1.105   2.837   4.053  0.4336  0.2783 -0.2103
   40POPC  H16X 5358   1.089   2.774   4.144 -0.5282  0.2622 -0.3823
   40POPC  H16Y 5359   1.213   2.849   4.031  0.4432  0.6176  0.0241
   40POPC  H16Z 5360   1.070   2.777   3.967  0.9376  0.6115 -0.6583
   41POPC     N 5361   4.573   5.700   6.361  0.4094  0.0365  0.5125
   41POPC   C12 5362   4.526   5.686   6.210 -0.6927 -0.7006  0.0549
   41POPC  H12A 5363   4.609   5.655   6.148 -1.1761 -0.7315 -0.5848
   41POPC  H12B 5364   4.502   5.785   6.174 -2.0193 -0.7209  0.8221
   41POPC   C13 5365   4.633   5.567   6.408 -0.1039  0.2081 -0.3634
   41POPC  H13A 5366   4.664   5.568   6.511  0.6238 -3.8858 -0.3849
   41POPC  H13B 5367   4.556   5.491   6.414  0.0463  0.1383  0.7632
   41POPC  H13C 5368   4.712   5.536   6.340  0.1642 -1.5020  0.6753
   41POPC   C14 5369   4.681   5.804   6.372 -0.0432 -0.7408  0.5864
   41POPC  H14A 5370   4.628   5.897   6.362  0.8013 -0.1989  1.1028
   41POPC  H14B 5371   4.733   5.801   6.467  0.4166  2.0144  0.4828
   41POPC  H14C 5372   4.750   5.787   6.291  1.0160 -1.8516  1.6735
   41POPC   C15 5373   4.463   5.728   6.450  0.8110 -0.0477  0.0653
   41POPC  H15A 5374   4.417   5.825   6.437  2.0825  0.7184  1.0351
   41POPC  H15B 5375   4.495   5.722   6.553 -1.1478  0.0956  0.7264
   41POPC  H15C 5376   4.394   5.649   6.424  2.3330 -1.1115 -0.9505
   41POPC   C11 5377   4.410   5.599   6.170 -0.4683 -1.2017 -0.1413
   41POPC  H11A 5378   4.401   5.616   6.061 -1.2177 -1.0456 -0.0601
   41POPC  H11B 5379   4.320   5.656   6.203  1.6856  1.0049  2.3926
   41POPC     P 5380   4.469   5.335   6.140 -0.2840  0.0908  0.2847
   41POPC   O13 5381   4.368   5.226   6.149 -0.4736 -0.6638  0.3301
   41POPC   O14 5382   4.599   5.307   6.206 -0.0643 -0.2490  0.2359
   41POPC   O12 5383   4.402   5.463   6.209  0.0331  0.4055 -0.5533
   41POPC   O11 5384   4.492   5.381   5.993  0.4789  0.1103 -0.1135
   41POPC    C1 5385   4.372   5.397   5.917 -0.7091 -0.4885  0.1245
   41POPC    HA 5386   4.292   5.444   5.978  0.0941 -1.3195  1.8950
   41POPC    HB 5387   4.347   5.294   5.883  1.0255 -1.7053  2.2616
   41POPC    C2 5388   4.399   5.479   5.789 -0.6884  0.3277  0.1016
   41POPC    HS 5389   4.420   5.584   5.818  1.0665 -0.1848  0.8414
   41POPC   O21 5390   4.295   5.470   5.696 -0.0933 -0.0010 -0.1052
   41POPC   C21 5391   4.176   5.523   5.719  0.2253 -0.6914  0.4229
   41POPC   O22 5392   4.146   5.580   5.824  0.0952  0.5559  0.2684
   41POPC   C22 5393   4.070   5.487   5.609  0.3328  0.1710 -0.3814
   41POPC   H2R 5394   4.052   5.576   5.545  3.0826  0.7331 -0.5151
   41POPC   H2S 5395   3.975   5.462   5.660  1.4098  0.6081  2.0109
   41POPC    C3 5396   4.535   5.423   5.728 -0.4879 -0.4881  0.0954
   41POPC    HX 5397   4.531   5.313   5.712 -1.6180 -0.5474  0.7000
   41POPC    HY 5398   4.608   5.438   5.810 -1.1733 -1.1307  0.8373
   41POPC   O31 5399   4.570   5.478   5.597  0.1411  0.3887  0.1740
   41POPC   C31 5400   4.595   5.606   5.607 -0.4277  0.4467  0.9427
   41POPC   O32 5401   4.615   5.668   5.707  0.7982  0.1455 -0.0029
   41POPC   C32 5402   4.602   5.665   5.461  0.0443 -0.2905  0.6859
   41POPC   H2X 5403   4.580   5.574   5.401  1.1014  0.2815 -0.6471
   41POPC   H2Y 5404   4.706   5.704   5.452 -0.7243  1.7801 -0.0532
   41POPC   C23 5405   4.117   5.363   5.533 -0.4230 -0.3680  0.3730
   41POPC   H3R 5406   4.135   5.291   5.615  0.3626 -1.3692 -0.6680
   41POPC   H3S 5407   4.209   5.373   5.472 -1.2612 -1.2985 -1.1123
   41POPC   C24 5408   4.004   5.299   5.442 -0.1484  0.0216 -1.3042
   41POPC   H4R 5409   3.910   5.263   5.490  0.4163  0.5334  0.2561
   41POPC   H4S 5410   4.040   5.211   5.386 -0.3961 -1.1341  0.2898
   41POPC   C25 5411   3.963   5.400   5.329 -0.6392  0.5535  0.1236
   41POPC   H5R 5412   4.050   5.438   5.271  1.4125 -1.9729  1.4058
   41POPC   H5S 5413   3.914   5.489   5.375 -1.0827 -0.2958  1.3283
   41POPC   C26 5414   3.857   5.335   5.229 -0.1536 -0.2815 -0.0314
   41POPC   H6R 5415   3.771   5.311   5.296  0.7683 -0.1270  1.2337
   41POPC   H6S 5416   3.908   5.245   5.188 -0.3958 -0.3190 -0.2555
   41POPC   C27 5417   3.813   5.429   5.119 -0.2112 -0.4819  0.1258
   41POPC   H7R 5418   3.896   5.438   5.046 -3.4517  1.7611 -3.6472
   41POPC   H7S 5419   3.801   5.529   5.164  0.9627  0.6104 -1.8441
   41POPC   C28 5420   3.689   5.375   5.044 -0.0494 -0.5765 -0.2533
   41POPC   H8R 5421   3.603   5.392   5.112  1.1365  2.0859  0.7258
   41POPC   H8S 5422   3.706   5.266   5.029 -0.0471 -0.7306  0.7635
   41POPC   C29 5423   3.662   5.445   4.910  0.0659 -0.2258 -0.6182
   41POPC   H91 5424   3.634   5.551   4.921 -0.1625 -0.3738  0.3561
   41POPC  C210 5425   3.707   5.398   4.788 -0.3757  0.5605 -0.2597
   41POPC  H101 5426   3.677   5.457   4.700 -0.2458  1.9046  0.5552
   41POPC  C211 5427   3.765   5.262   4.759 -0.0700  0.0593  0.2300
   41POPC  H11R 5428   3.753   5.235   4.651 -1.9019 -0.1953  0.4512
   41POPC  H11S 5429   3.703   5.187   4.814  0.6290  0.3944  1.4842
   41POPC  C212 5430   3.916   5.244   4.792 -0.4959 -0.2176  0.2572
   41POPC  H12R 5431   3.941   5.136   4.784  0.8432  0.0994 -0.1308
   41POPC  H12S 5432   3.925   5.287   4.894 -1.2374  2.2484 -0.6279
   41POPC  C213 5433   4.007   5.322   4.693 -0.1212  0.7672 -0.3047
   41POPC  H13R 5434   4.111   5.334   4.730 -0.3598  1.7667  0.0596
   41POPC  H13S 5435   3.982   5.430   4.692  2.9750  1.5685 -0.8528
   41POPC  C214 5436   4.013   5.265   4.556 -0.3611  0.5543 -0.1635
   41POPC  H14R 5437   3.924   5.272   4.489 -0.5309  2.5813  0.1948
   41POPC  H14S 5438   4.048   5.160   4.567 -0.9975  0.4673  1.1791
   41POPC  C215 5439   4.131   5.330   4.477  0.3474 -0.2155  0.1587
   41POPC  H15R 5440   4.223   5.319   4.538 -0.9065 -0.8001  2.0419
   41POPC  H15S 5441   4.113   5.440   4.483  0.6542 -0.2331  2.1906
   41POPC  C216 5442   4.151   5.286   4.329  0.5110 -0.3798  0.0563
   41POPC  H16R 5443   4.066   5.316   4.264  1.3415 -0.3425 -1.0410
   41POPC  H16S 5444   4.148   5.176   4.341  1.7527 -0.5634 -1.1292
   41POPC  C217 5445   4.285   5.321   4.270  0.8183 -0.0988 -0.2224
   41POPC  H17R 5446   4.367   5.309   4.344 -1.0108  0.1149  1.9281
   41POPC  H17S 5447   4.282   5.425   4.231  1.6171 -0.2146 -0.6290
   41POPC  C218 5448   4.315   5.225   4.155  0.1612  0.4459 -0.8124
   41POPC  H18R 5449   4.322   5.121   4.193  1.0926  0.2061 -1.6131
   41POPC  H18S 5450   4.419   5.238   4.117 -0.0008  0.2798 -1.3145
   41POPC  H18T 5451   4.240   5.218   4.074 -0.3774 -0.8881 -0.2323
   41POPC   C33 5452   4.505   5.783   5.421 -0.9706  0.8543 -0.4576
   41POPC   H3X 5453   4.536   5.812   5.318 -0.7136  1.1420 -0.3037
   41POPC   H3Y 5454   4.526   5.871   5.485 -1.8440 -1.2861  2.9782
   41POPC   C34 5455   4.366   5.737   5.423  0.0168  0.1101  0.0730
   41POPC   H4X 5456   4.329   5.741   5.527  3.1180  2.0464  1.2437
   41POPC   H4Y 5457   4.351   5.632   5.392  0.8309  0.1299 -0.4146
   41POPC   C35 5458   4.265   5.821   5.336 -0.1130 -0.5596 -0.0185
   41POPC   H5X 5459   4.291   5.811   5.228 -1.4320  0.3935 -0.4447
   41POPC   H5Y 5460   4.272   5.928   5.366  0.6772  0.2329 -2.6897
   41POPC   C36 5461   4.118   5.782   5.354  0.0792  0.6586 -0.0563
   41POPC   H6X 5462   4.085   5.810   5.457  1.4746  1.0470  0.3177
   41POPC   H6Y 5463   4.123   5.672   5.347  2.2834  0.6037  1.3160
   41POPC   C37 5464   4.021   5.837   5.250 -0.0454  0.2651 -0.0052
   41POPC   H7X 5465   4.014   5.948   5.253  2.2016  0.4261  0.7047
   41POPC   H7Y 5466   3.921   5.790   5.261 -0.4876  1.5460  1.7768
   41POPC   C38 5467   4.060   5.801   5.105 -0.0804 -0.0690  0.7694
   41POPC   H8X 5468   4.045   5.692   5.085  1.2506 -0.2731  0.8392
   41POPC   H8Y 5469   4.163   5.822   5.070  0.1801 -1.8418  0.3429
   41POPC   C39 5470   3.973   5.879   5.010 -0.4158 -0.2877 -0.1096
   41POPC   H9X 5471   3.964   5.984   5.048  0.7702 -0.6343  1.2039
   41POPC   H9Y 5472   3.876   5.828   5.028 -1.5641  1.9418  0.4253
   41POPC  C310 5473   4.022   5.876   4.863 -0.2896 -0.2013 -0.5429
   41POPC  H10X 5474   4.082   5.782   4.852  0.2684  0.1397 -0.4543
   41POPC  H10Y 5475   4.092   5.962   4.854  0.1710  0.0857  3.8326
   41POPC  C311 5476   3.902   5.897   4.772 -0.5754  0.8076 -0.7727
   41POPC  H11X 5477   3.837   5.979   4.809 -1.9285  0.9658 -3.3084
   41POPC  H11Y 5478   3.832   5.811   4.783 -2.5105  2.4581  0.4841
   41POPC  C312 5479   3.922   5.912   4.620  0.5461 -0.1781 -0.2250
   41POPC  H12X 5480   3.835   5.876   4.560  0.8408  0.1781 -0.8764
   41POPC  H12Y 5481   4.009   5.847   4.598  0.4509 -0.8776  1.3515
   41POPC  C313 5482   3.949   6.067   4.598  0.2085  0.2650  0.9443
   41POPC  H13X 5483   4.050   6.094   4.636 -0.1924  1.3296  1.2800
   41POPC  H13Y 5484   3.871   6.136   4.637  2.2732  4.2301 -1.2852
   41POPC  C314 5485   3.960   6.097   4.447  1.0312 -0.0046  0.0425
   41POPC  H14X 5486   4.015   6.011   4.403 -0.1946 -0.3007 -0.9499
   41POPC  H14Y 5487   4.021   6.188   4.430 -0.5093  0.6237 -2.5807
   41POPC  C315 5488   3.827   6.116   4.372 -0.8976 -0.4255  0.8567
   41POPC  H15X 5489   3.792   6.011   4.374 -0.0962 -0.6901  1.7907
   41POPC  H15Y 5490   3.847   6.137   4.265 -2.2642  0.3730  0.7365
   41POPC  C316 5491   3.740   6.226   4.417 -0.3117  0.6459 -0.0510
   41POPC  H16X 5492   3.645   6.228   4.358  0.8967  0.5338 -2.0908
   41POPC  H16Y 5493   3.804   6.317   4.419  2.7211 -1.3689  2.2178
   41POPC  H16Z 5494   3.706   6.207   4.521  1.8898  0.1913  0.6275
   42POPC     N 5495   2.575   0.263   6.563 -0.1198  0.4189 -0.0423
   42POPC   C12 5496   2.495   0.178   6.659 -0.7003  0.4653  0.4509
   42POPC  H12A 5497   2.392   0.209   6.659 -0.6683  0.5817  1.3795
   42POPC  H12B 5498   2.526   0.216   6.755 -1.0957  4.2519 -0.7409
   42POPC   C13 5499   2.512   0.274   6.430  0.4477 -0.4788  0.8597
   42POPC  H13A 5500   2.438   0.352   6.432  0.5935 -0.3297  0.4851
   42POPC  H13B 5501   2.576   0.304   6.348 -1.3484 -0.0726 -0.4618
   42POPC  H13C 5502   2.468   0.178   6.410 -0.0867 -0.2993  1.1614
   42POPC   C14 5503   2.592   0.404   6.619  0.0240  0.5462  0.2854
   42POPC  H14A 5504   2.490   0.441   6.621  0.0329  0.5577  0.5320
   42POPC  H14B 5505   2.634   0.406   6.718  0.3315  0.9071  0.1518
   42POPC  H14C 5506   2.656   0.470   6.563  2.0546 -2.0204 -0.5997
   42POPC   C15 5507   2.714   0.198   6.551  0.6258  0.3653 -0.3301
   42POPC  H15A 5508   2.779   0.267   6.500  2.9123 -2.5067 -1.6071
   42POPC  H15B 5509   2.706   0.103   6.500 -2.7523  0.1599  0.3352
   42POPC  H15C 5510   2.761   0.178   6.645 -0.6198 -0.5905  0.1244
   42POPC   C11 5511   2.504   0.020   6.642  0.0666 -0.4229  0.1775
   42POPC  H11A 5512   2.423  -0.014   6.711 -2.0774  2.3550 -0.7798
   42POPC  H11B 5513   2.595  -0.020   6.691 -0.7415 -1.9358  0.5142
   42POPC     P 5514   2.390  -0.090   6.436  0.6303 -0.4450  0.1466
   42POPC   O13 5515   2.310   0.016   6.368  0.2977  0.2412  0.0846
   42POPC   O14 5516   2.317  -0.190   6.516  0.0634 -0.2092 -0.3131
   42POPC   O12 5517   2.499  -0.023   6.513  0.4013 -0.3439  0.2779
   42POPC   O11 5518   2.481  -0.158   6.328  0.5350  0.1228 -0.0543
   42POPC    C1 5519   2.567  -0.073   6.247  0.0236 -0.6996  0.1431
   42POPC    HA 5520   2.653  -0.131   6.206  1.4675  1.5762 -0.2963
   42POPC    HB 5521   2.618   0.010   6.301 -1.3626  1.1123 -1.1961
   42POPC    C2 5522   2.491  -0.025   6.119  0.4141  0.0170  0.4249
   42POPC    HS 5523   2.427   0.062   6.146 -0.6306 -0.4448 -0.4695
   42POPC   O21 5524   2.422  -0.136   6.058 -0.1523  0.9273 -0.0858
   42POPC   C21 5525   2.333  -0.097   5.970  0.1863 -0.0512  0.6141
   42POPC   O22 5526   2.304   0.022   5.951  0.3048 -0.0380 -0.1483
   42POPC   C22 5527   2.274  -0.213   5.893 -0.2752  0.0590  0.0260
   42POPC   H2R 5528   2.333  -0.301   5.927 -0.2525 -0.2207 -0.7225
   42POPC   H2S 5529   2.304  -0.198   5.788 -1.8438  1.7413 -0.2264
   42POPC    C3 5530   2.608   0.031   6.031 -0.0978 -0.2595  0.8686
   42POPC    HX 5531   2.702   0.025   6.089  0.0344  2.0241  1.0036
   42POPC    HY 5532   2.586   0.140   6.022  1.2874 -0.1115 -2.2893
   42POPC   O31 5533   2.610  -0.031   5.900 -0.0239 -0.2998 -0.2564
   42POPC   C31 5534   2.703  -0.127   5.886  0.2991  0.1691 -0.0858
   42POPC   O32 5535   2.792  -0.159   5.962  0.1309  0.0142 -0.1635
   42POPC   C32 5536   2.675  -0.202   5.760  0.0992 -0.0289  0.8284
   42POPC   H2X 5537   2.700  -0.136   5.674 -1.3037  0.1070  0.4911
   42POPC   H2Y 5538   2.565  -0.213   5.756  0.2727 -1.5610 -1.0125
   42POPC   C23 5539   2.128  -0.250   5.897  0.1327  0.2156 -0.8354
   42POPC   H3R 5540   2.074  -0.168   5.846 -0.6482  1.3658  1.6693
   42POPC   H3S 5541   2.097  -0.254   6.004 -0.1106  1.9107 -0.8236
   42POPC   C24 5542   2.099  -0.384   5.821 -0.5442 -0.5816 -0.5225
   42POPC   H4R 5543   2.159  -0.375   5.728 -1.4563  2.3747 -0.9300
   42POPC   H4S 5544   1.996  -0.382   5.779 -0.9597 -0.0623  0.4817
   42POPC   C25 5545   2.129  -0.510   5.904 -0.4152 -0.8490  0.4127
   42POPC   H5R 5546   2.085  -0.500   6.006 -0.6789  1.3773  0.1132
   42POPC   H5S 5547   2.235  -0.526   5.934 -0.2259 -4.8781 -1.6306
   42POPC   C26 5548   2.082  -0.642   5.843 -0.1157  0.1380  0.3283
   42POPC   H6R 5549   1.977  -0.638   5.806  0.4243  1.4023 -1.1645
   42POPC   H6S 5550   2.092  -0.723   5.919  2.4849 -0.4319 -0.5447
   42POPC   C27 5551   2.170  -0.676   5.715 -0.5197  0.4575  0.1649
   42POPC   H7R 5552   2.274  -0.696   5.749 -0.5357  1.3769  0.8186
   42POPC   H7S 5553   2.163  -0.582   5.656 -0.9442  1.4728  1.7601
   42POPC   C28 5554   2.117  -0.779   5.625  0.2464  0.0378  0.1820
   42POPC   H8R 5555   2.163  -0.764   5.526 -0.5240  1.0759 -0.0370
   42POPC   H8S 5556   2.010  -0.752   5.608  0.1655 -0.5014 -0.1895
   42POPC   C29 5557   2.132  -0.918   5.686 -0.2669 -0.1953 -0.0767
   42POPC   H91 5558   2.142  -0.912   5.795 -1.5386  2.4239 -0.0117
   42POPC  C210 5559   2.131  -1.034   5.619 -0.2388  0.4409 -0.0229
   42POPC  H101 5560   2.126  -1.126   5.678 -0.1248 -0.0149 -0.7155
   42POPC  C211 5561   2.130  -1.053   5.468  0.7582  0.1707  0.8799
   42POPC  H11R 5562   2.159  -0.959   5.416  0.0364 -0.5541 -0.8956
   42POPC  H11S 5563   2.025  -1.066   5.436  1.0832 -0.3003 -0.0359
   42POPC  C212 5564   2.225  -1.170   5.410  0.6749  0.2900 -0.1350
   42POPC  H12R 5565   2.213  -1.254   5.481  0.9165  1.8052  1.7788
   42POPC  H12S 5566   2.325  -1.121   5.412  0.6536  0.3527 -0.4916
   42POPC  C213 5567   2.186  -1.232   5.268 -0.0194  0.4470  0.1241
   42POPC  H13R 5568   2.154  -1.145   5.207  2.2730  1.0693 -0.2866
   42POPC  H13S 5569   2.109  -1.312   5.264  2.2890 -1.8764 -0.9062
   42POPC  C214 5570   2.311  -1.282   5.195  1.0724  0.4643 -0.1631
   42POPC  H14R 5571   2.347  -1.379   5.236  1.5320  1.2640  1.3713
   42POPC  H14S 5572   2.394  -1.211   5.214  1.5835  0.1534 -1.1512
   42POPC  C215 5573   2.288  -1.305   5.046 -0.6644  0.1360  0.0292
   42POPC  H15R 5574   2.230  -1.225   4.995 -0.5395  0.7055  0.7514
   42POPC  H15S 5575   2.224  -1.395   5.048 -0.3449 -0.0980 -0.0913
   42POPC  C216 5576   2.417  -1.335   4.972  0.3762  0.2472 -0.0028
   42POPC  H16R 5577   2.456  -1.435   5.000  0.7967  0.4414  0.1230
   42POPC  H16S 5578   2.495  -1.256   4.985  1.3984 -0.8100  0.4578
   42POPC  C217 5579   2.400  -1.339   4.815  0.4438  0.7240  0.6110
   42POPC  H17R 5580   2.344  -1.251   4.775  2.6562  1.0611 -2.0171
   42POPC  H17S 5581   2.336  -1.423   4.781  0.6878  0.6101  0.4311
   42POPC  C218 5582   2.526  -1.325   4.734 -0.7754  0.0800 -0.1617
   42POPC  H18R 5583   2.581  -1.420   4.718 -0.5148  0.3120 -0.6692
   42POPC  H18S 5584   2.597  -1.249   4.772  0.2635 -0.4605 -0.9772
   42POPC  H18T 5585   2.510  -1.284   4.633  3.7436  2.8481 -0.0045
   42POPC   C33 5586   2.755  -0.344   5.749 -0.1812  0.0456 -0.0746
   42POPC   H3X 5587   2.756  -0.387   5.852 -0.8231 -2.0302 -0.8777
   42POPC   H3Y 5588   2.859  -0.315   5.723 -0.8868  2.9518 -0.0492
   42POPC   C34 5589   2.687  -0.441   5.654  0.1733 -0.3355  0.1982
   42POPC   H4X 5590   2.597  -0.481   5.706 -0.3219 -1.3483 -1.3378
   42POPC   H4Y 5591   2.750  -0.531   5.632 -0.7848 -0.8735 -0.4400
   42POPC   C35 5592   2.655  -0.380   5.520 -0.3383 -0.8050 -0.9400
   42POPC   H5X 5593   2.586  -0.293   5.527  0.8864  0.1063  0.7779
   42POPC   H5Y 5594   2.609  -0.462   5.460 -0.5209 -0.8130 -0.7934
   42POPC   C36 5595   2.785  -0.340   5.451  0.4130 -0.5091  0.2889
   42POPC   H6X 5596   2.816  -0.239   5.485  1.1637 -0.5425 -0.2717
   42POPC   H6Y 5597   2.759  -0.317   5.346 -0.3458 -0.4262  0.4856
   42POPC   C37 5598   2.899  -0.446   5.445  0.5341 -0.3598 -0.3407
   42POPC   H7X 5599   2.855  -0.544   5.414  2.4255 -1.2739 -0.2499
   42POPC   H7Y 5600   2.940  -0.454   5.547 -1.3835  0.4446  0.5470
   42POPC   C38 5601   3.010  -0.426   5.344  0.1467  0.3700  0.5312
   42POPC   H8X 5602   2.969  -0.399   5.244  0.2737  1.0386  0.6543
   42POPC   H8Y 5603   3.069  -0.520   5.342 -1.8709 -0.9503  0.0851
   42POPC   C39 5604   3.115  -0.312   5.372  0.4642  0.2325  0.6546
   42POPC   H9X 5605   3.210  -0.341   5.324 -0.1377  0.0766 -0.4834
   42POPC   H9Y 5606   3.129  -0.320   5.482 -5.0096 -0.2348  1.6426
   42POPC  C310 5607   3.083  -0.168   5.322  0.2724 -0.2291  0.1097
   42POPC  H10X 5608   2.996  -0.132   5.382 -0.1458  0.6526 -0.9986
   42POPC  H10Y 5609   3.046  -0.179   5.218  1.1508 -2.8103  0.0166
   42POPC  C311 5610   3.192  -0.071   5.319  0.6089 -0.0321 -0.0447
   42POPC  H11X 5611   3.250  -0.071   5.413 -2.2859  0.1483  1.8845
   42POPC  H11Y 5612   3.143   0.027   5.299  1.9702  0.7978  0.5766
   42POPC  C312 5613   3.294  -0.088   5.211 -0.3091 -0.1534 -0.3708
   42POPC  H12X 5614   3.251  -0.082   5.109 -0.7880 -0.1283 -0.1681
   42POPC  H12Y 5615   3.332  -0.192   5.217 -0.9453 -0.4374 -1.1982
   42POPC  C313 5616   3.406   0.012   5.225 -0.2982  0.6196  0.0834
   42POPC  H13X 5617   3.468  -0.003   5.315  1.9833  0.4397 -1.4360
   42POPC  H13Y 5618   3.353   0.108   5.238 -1.3636  0.0898 -0.2195
   42POPC  C314 5619   3.492   0.027   5.102 -0.2312 -0.2372  0.0264
   42POPC  H14X 5620   3.554   0.119   5.108  0.8498 -0.7856 -1.9032
   42POPC  H14Y 5621   3.429   0.042   5.012  0.4770 -0.7588 -0.5719
   42POPC  C315 5622   3.586  -0.086   5.080 -0.6967  0.3022  0.0074
   42POPC  H15X 5623   3.533  -0.184   5.072  0.1251 -0.4691  2.8483
   42POPC  H15Y 5624   3.656  -0.091   5.167  0.5281  2.1210 -0.8364
   42POPC  C316 5625   3.683  -0.073   4.959  0.6653 -0.5568 -0.5242
   42POPC  H16X 5626   3.625  -0.101   4.869  1.5391 -2.1614 -0.6199
   42POPC  H16Y 5627   3.773  -0.138   4.969  0.7377 -0.3496  0.2752
   42POPC  H16Z 5628   3.717   0.033   4.959 -1.4647  0.1993 -1.7378
   43POPC     N 5629   4.837   0.908   6.069  0.1255 -0.0038  0.1050
   43POPC   C12 5630   4.955   0.909   6.170  0.4921  0.0972  1.1339
   43POPC  H12A 5631   4.939   0.984   6.245 -3.1245  0.6222  0.0062
   43POPC  H12B 5632   5.041   0.934   6.109 -0.4718  0.5957 -0.0457
   43POPC   C13 5633   4.835   0.792   5.976 -0.7293  0.5221  0.3846
   43POPC  H13A 5634   4.914   0.793   5.902 -0.7932 -1.3125  0.2370
   43POPC  H13B 5635   4.836   0.698   6.029 -0.9552 -0.8207 -1.8557
   43POPC  H13C 5636   4.747   0.789   5.912 -0.4039 -1.1041 -0.0303
   43POPC   C14 5637   4.710   0.904   6.155 -0.0911 -0.6642 -0.1118
   43POPC  H14A 5638   4.623   0.909   6.092 -0.0850 -1.4554 -0.1941
   43POPC  H14B 5639   4.702   0.818   6.221 -3.5895 -0.4297 -0.0762
   43POPC  H14C 5640   4.718   0.995   6.212 -1.4615  0.2197 -1.2812
   43POPC   C15 5641   4.824   1.036   5.996 -0.0125 -0.8938 -0.0502
   43POPC  H15A 5642   4.827   1.114   6.071 -0.1280  0.7095 -1.6366
   43POPC  H15B 5643   4.729   1.041   5.944  0.5393 -2.2868 -1.2712
   43POPC  H15C 5644   4.899   1.056   5.921 -0.8567 -1.6097 -1.1216
   43POPC   C11 5645   4.990   0.778   6.253  0.3408 -0.8773  0.4948
   43POPC  H11A 5646   5.084   0.805   6.307  2.0647 -1.6185 -1.9370
   43POPC  H11B 5647   5.024   0.713   6.170 -2.6537 -1.9467 -0.0062
   43POPC     P 5648   4.903   0.564   6.367 -0.3191  0.1153  0.0402
   43POPC   O13 5649   4.794   0.514   6.448  0.8677  0.1580  0.5316
   43POPC   O14 5650   5.047   0.543   6.413 -0.4182  0.2876  0.2178
   43POPC   O12 5651   4.881   0.719   6.335 -0.4021 -0.3632  0.6472
   43POPC   O11 5652   4.888   0.492   6.227 -0.4612 -0.7167  0.6304
   43POPC    C1 5653   4.760   0.488   6.161 -0.2954 -0.0781 -0.0718
   43POPC    HA 5654   4.718   0.589   6.141 -0.2785  0.0420  0.4977
   43POPC    HB 5655   4.698   0.421   6.225 -1.0345  0.5931 -0.0737
   43POPC    C2 5656   4.767   0.419   6.021  0.0185 -0.0666  0.3410
   43POPC    HS 5657   4.787   0.311   6.036 -1.6481 -0.2100  1.8459
   43POPC   O21 5658   4.869   0.488   5.951 -0.2125  0.1118  0.4345
   43POPC   C21 5659   4.987   0.432   5.965 -0.4857 -0.3583  0.4489
   43POPC   O22 5660   5.012   0.324   6.020 -0.0612  0.0344  0.3151
   43POPC   C22 5661   5.091   0.520   5.889 -0.5532  0.6111 -0.8772
   43POPC   H2R 5662   5.177   0.450   5.891 -1.7587 -0.8954  0.5864
   43POPC   H2S 5663   5.110   0.610   5.951  1.2964 -1.0131  1.0475
   43POPC    C3 5664   4.626   0.422   5.945 -0.2741 -0.0345  0.3175
   43POPC    HX 5665   4.565   0.503   5.990  1.7533  0.8777  1.5386
   43POPC    HY 5666   4.577   0.327   5.976 -0.2389 -0.3946 -0.6729
   43POPC   O31 5667   4.631   0.415   5.802  0.3133 -0.0678 -0.4011
   43POPC   C31 5668   4.619   0.535   5.745 -0.5204  0.0294  0.4153
   43POPC   O32 5669   4.606   0.635   5.816 -0.0963 -0.3631  0.6942
   43POPC   C32 5670   4.628   0.530   5.594  0.1145 -0.3723  0.5560
   43POPC   H2X 5671   4.592   0.625   5.549  0.4525 -0.7190 -0.4546
   43POPC   H2Y 5672   4.550   0.455   5.570 -1.1395  1.0069  0.1883
   43POPC   C23 5673   5.052   0.562   5.750 -0.4252 -0.0602 -0.3638
   43POPC   H3R 5674   4.976   0.643   5.757 -0.1942  0.1038  0.3007
   43POPC   H3S 5675   5.009   0.478   5.693 -0.2222 -2.2678  2.5049
   43POPC   C24 5676   5.189   0.612   5.686 -0.4503  0.5875 -0.2870
   43POPC   H4R 5677   5.276   0.545   5.703 -0.6393  0.2401 -0.6691
   43POPC   H4S 5678   5.212   0.701   5.749  1.4021  0.5735 -0.9027
   43POPC   C25 5679   5.171   0.666   5.540 -0.3546 -0.3987 -0.3798
   43POPC   H5R 5680   5.097   0.748   5.550  0.8876  0.5395  1.7958
   43POPC   H5S 5681   5.131   0.581   5.482  0.8788 -2.4755  1.6211
   43POPC   C26 5682   5.304   0.719   5.474 -0.0582  0.0953 -0.3519
   43POPC   H6R 5683   5.354   0.780   5.552  0.4941 -0.0904 -0.5579
   43POPC   H6S 5684   5.279   0.784   5.387 -1.0075 -1.8835 -1.6375
   43POPC   C27 5685   5.395   0.601   5.433 -0.5730  0.4453  0.1135
   43POPC   H7R 5686   5.415   0.540   5.524  1.9361 -0.3433 -0.8632
   43POPC   H7S 5687   5.499   0.635   5.415  0.4329 -1.0539  2.5545
   43POPC   C28 5688   5.333   0.513   5.321  0.6080 -0.2347 -0.1082
   43POPC   H8R 5689   5.222   0.516   5.318  0.6426  0.7702 -1.3641
   43POPC   H8S 5690   5.370   0.408   5.328 -1.2446 -0.9933 -0.9232
   43POPC   C29 5691   5.377   0.559   5.186  0.3402  0.4431  0.4861
   43POPC   H91 5692   5.443   0.647   5.192 -0.5145  1.0401  1.3682
   43POPC  C210 5693   5.361   0.499   5.066 -0.0843  0.2027 -0.7558
   43POPC  H101 5694   5.410   0.543   4.979  1.1433  1.7791  0.6686
   43POPC  C211 5695   5.285   0.369   5.033  0.1607 -0.0247  0.1367
   43POPC  H11R 5696   5.220   0.334   5.117  0.8886  0.6568  1.0108
   43POPC  H11S 5697   5.363   0.292   5.017  0.9189  0.9393 -0.9373
   43POPC  C212 5698   5.204   0.401   4.901  0.2680 -0.4970  0.3911
   43POPC  H12R 5699   5.274   0.462   4.840 -0.2419 -0.0328  0.2664
   43POPC  H12S 5700   5.110   0.455   4.924 -0.8968 -1.7982 -1.1372
   43POPC  C213 5701   5.168   0.275   4.826  0.2956  0.5377 -0.7247
   43POPC  H13R 5702   5.088   0.217   4.878  1.1891 -2.6044 -2.5329
   43POPC  H13S 5703   5.259   0.212   4.837  0.8549  1.4650  0.1572
   43POPC  C214 5704   5.131   0.285   4.679 -0.1659 -0.3556  0.3882
   43POPC  H14R 5705   5.032   0.333   4.671 -0.8364 -1.5888  0.9511
   43POPC  H14S 5706   5.117   0.186   4.631 -2.0280  1.2405 -2.6321
   43POPC  C215 5707   5.238   0.357   4.594 -0.4965 -0.3745 -0.1616
   43POPC  H15R 5708   5.253   0.462   4.626 -0.0936 -0.2383 -0.7779
   43POPC  H15S 5709   5.199   0.342   4.491  0.2500 -1.8322 -0.2659
   43POPC  C216 5710   5.376   0.294   4.609  0.2080 -0.1917 -0.4395
   43POPC  H16R 5711   5.367   0.183   4.617  0.3621 -0.2145 -0.5860
   43POPC  H16S 5712   5.426   0.329   4.702 -2.8275  2.2135  0.4810
   43POPC  C217 5713   5.452   0.329   4.481 -0.8409  0.0265 -0.4400
   43POPC  H17R 5714   5.452   0.440   4.490 -2.1333  0.0896 -1.0453
   43POPC  H17S 5715   5.394   0.294   4.393 -0.9969  0.2477 -0.4270
   43POPC  C218 5716   5.602   0.280   4.476  0.6798 -0.3203 -0.2516
   43POPC  H18R 5717   5.592   0.170   4.485 -1.5305 -0.2648 -1.2096
   43POPC  H18S 5718   5.650   0.323   4.566  0.2575 -0.0546 -0.1510
   43POPC  H18T 5719   5.661   0.310   4.387 -1.1424 -0.3309 -1.5208
   43POPC   C33 5720   4.766   0.490   5.529  0.0598  0.2715 -0.1453
   43POPC   H3X 5721   4.810   0.402   5.579 -1.2239 -0.7192 -0.7068
   43POPC   H3Y 5722   4.832   0.575   5.558  0.2056  0.3364 -0.6638
   43POPC   C34 5723   4.776   0.483   5.383 -0.0391 -0.4049  0.5121
   43POPC   H4X 5724   4.698   0.553   5.348 -0.5165  0.1411  2.5315
   43POPC   H4Y 5725   4.748   0.380   5.353  0.0757 -0.2442 -0.1716
   43POPC   C35 5726   4.918   0.513   5.339  0.0743 -0.5087  0.3455
   43POPC   H5X 5727   4.993   0.453   5.394  0.3689  0.7691  1.3879
   43POPC   H5Y 5728   4.949   0.618   5.360  1.5071 -0.4388 -1.8357
   43POPC   C36 5729   4.929   0.489   5.185 -0.7473 -0.0289  0.3906
   43POPC   H6X 5730   4.921   0.381   5.159  0.5467 -0.3656  1.2770
   43POPC   H6Y 5731   5.036   0.508   5.164 -0.1985 -0.0012  2.8757
   43POPC   C37 5732   4.841   0.579   5.094  0.4328 -0.3064  0.7009
   43POPC   H7X 5733   4.891   0.619   5.003  1.7200  0.2398  1.6218
   43POPC   H7Y 5734   4.803   0.668   5.147  0.6780  0.7784 -0.8580
   43POPC   C38 5735   4.708   0.511   5.042 -0.1329 -0.4346 -0.2361
   43POPC   H8X 5736   4.663   0.592   4.980 -0.5167 -0.5951 -0.1714
   43POPC   H8Y 5737   4.639   0.484   5.125 -0.4380 -1.6098 -0.8454
   43POPC   C39 5738   4.714   0.378   4.952  0.3311 -0.2785  0.1490
   43POPC   H9X 5739   4.742   0.300   5.025 -0.1754  0.7720  1.4998
   43POPC   H9Y 5740   4.794   0.389   4.875 -1.4575  2.7930 -1.4721
   43POPC  C310 5741   4.583   0.333   4.899  0.6795  0.0837  0.2469
   43POPC  H10X 5742   4.557   0.423   4.838  0.6172  1.6206  2.4082
   43POPC  H10Y 5743   4.507   0.318   4.978 -0.3673  1.0536 -0.5331
   43POPC  C311 5744   4.586   0.208   4.810 -0.8302 -0.0806 -0.5759
   43POPC  H11X 5745   4.636   0.125   4.865 -0.1041  0.7530  0.0573
   43POPC  H11Y 5746   4.659   0.231   4.729 -2.2483 -2.2208 -2.5644
   43POPC  C312 5747   4.456   0.153   4.761  0.0029 -0.3654  0.1809
   43POPC  H12X 5748   4.403   0.236   4.710 -1.2454 -0.5594  1.1143
   43POPC  H12Y 5749   4.394   0.117   4.846 -1.1091 -1.9125 -1.2266
   43POPC  C313 5750   4.465   0.043   4.659 -0.7176 -0.1484  0.7479
   43POPC  H13X 5751   4.509  -0.047   4.707 -3.7987 -1.6522  1.0653
   43POPC  H13Y 5752   4.533   0.080   4.580  0.4328  0.0923  1.8278
   43POPC  C314 5753   4.326   0.004   4.594 -0.9167  0.5834  0.5266
   43POPC  H14X 5754   4.276   0.096   4.559 -0.5213  0.6807  0.2143
   43POPC  H14Y 5755   4.261  -0.040   4.673 -1.6689  0.8729  0.0781
   43POPC  C315 5756   4.338  -0.091   4.479  0.1037  0.1510  0.0118
   43POPC  H15X 5757   4.239  -0.089   4.428 -0.2448  1.5871  0.7008
   43POPC  H15Y 5758   4.358  -0.195   4.513 -0.4009  0.5092  1.4592
   43POPC  C316 5759   4.441  -0.044   4.377 -0.0247 -0.7336 -0.5952
   43POPC  H16X 5760   4.546  -0.066   4.408 -0.0293 -2.2761 -1.5166
   43POPC  H16Y 5761   4.440   0.067   4.369 -0.3278 -0.5262  1.7795
   43POPC  H16Z 5762   4.428  -0.099   4.281 -1.4232  1.4085 -1.7039
   44POPC     N 5763   0.067   1.109   5.803 -0.5880  0.0593 -0.4895
   44POPC   C12 5764  -0.025   1.091   5.679 -0.3498  0.0980 -0.4654
   44POPC  H12A 5765   0.030   1.082   5.587  0.0117 -0.7961 -0.1691
   44POPC  H12B 5766  -0.077   1.184   5.659  0.5217  0.8469  0.6342
   44POPC   C13 5767   0.138   0.982   5.835 -0.1209  0.2989  0.3709
   44POPC  H13A 5768   0.170   0.924   5.750 -3.3145 -3.1132  1.2266
   44POPC  H13B 5769   0.210   0.998   5.915  0.8295  3.7308 -0.9550
   44POPC  H13C 5770   0.071   0.907   5.874  1.0092 -1.0551 -0.2033
   44POPC   C14 5771   0.165   1.218   5.782  0.5131  0.4241 -0.6043
   44POPC  H14A 5772   0.244   1.226   5.855 -1.3006 -0.8271  1.6386
   44POPC  H14B 5773   0.212   1.203   5.686 -2.1880  0.2528 -1.9829
   44POPC  H14C 5774   0.106   1.308   5.773 -0.1933  0.0484  0.1319
   44POPC   C15 5775  -0.017   1.139   5.926 -0.8136 -0.3713 -0.4318
   44POPC  H15A 5776   0.042   1.139   6.017  0.0074  2.4336 -0.8722
   44POPC  H15B 5777  -0.095   1.067   5.947 -2.5753  1.5790  0.0285
   44POPC  H15C 5778  -0.063   1.235   5.910  1.5374  0.6373 -1.5822
   44POPC   C11 5779  -0.125   0.973   5.667 -0.3620 -0.9148 -0.0902
   44POPC  H11A 5780  -0.067   0.878   5.675  0.6695 -0.2182  1.0609
   44POPC  H11B 5781  -0.173   0.983   5.568 -0.9320 -1.0995  0.1621
   44POPC     P 5782  -0.339   1.089   5.761  0.3289  0.3223  0.5687
   44POPC   O13 5783  -0.281   1.221   5.739 -0.5189 -0.6747  0.2887
   44POPC   O14 5784  -0.420   1.085   5.882 -0.3381  0.0612 -0.3564
   44POPC   O12 5785  -0.222   0.977   5.765 -0.4529 -0.0800 -0.7077
   44POPC   O11 5786  -0.430   1.048   5.644  0.1539  0.3697  0.0128
   44POPC    C1 5787  -0.488   0.922   5.647 -0.2165  0.6133  0.0513
   44POPC    HA 5788  -0.501   0.875   5.747 -0.5895  1.5632  0.4538
   44POPC    HB 5789  -0.433   0.848   5.585  0.0172  0.5194  0.3654
   44POPC    C2 5790  -0.635   0.932   5.592 -0.5459 -0.6564 -0.5047
   44POPC    HS 5791  -0.678   0.829   5.597 -0.1332 -0.9259 -2.0016
   44POPC   O21 5792  -0.615   0.975   5.455  0.0889  0.0600 -0.9454
   44POPC   C21 5793  -0.593   0.877   5.366 -0.2736  0.1793  0.3196
   44POPC   O22 5794  -0.604   0.761   5.390  0.0465  0.0874 -0.3615
   44POPC   C22 5795  -0.539   0.926   5.226 -0.7692 -0.3779 -0.8689
   44POPC   H2R 5796  -0.429   0.938   5.237 -0.8504  1.3453 -1.6781
   44POPC   H2S 5797  -0.573   1.031   5.214  0.8345  0.2597 -0.1395
   44POPC    C3 5798  -0.712   1.046   5.664 -0.3182  0.6878 -0.0502
   44POPC    HX 5799  -0.661   1.142   5.640  1.3939 -0.3527 -0.7005
   44POPC    HY 5800  -0.695   1.044   5.774  3.3979  0.9708 -0.5033
   44POPC   O31 5801  -0.847   1.034   5.621  0.0881 -0.5953 -0.1201
   44POPC   C31 5802  -0.908   1.139   5.571  0.1684  0.4085 -0.1668
   44POPC   O32 5803  -0.860   1.250   5.562  0.0583 -0.4855  0.2061
   44POPC   C32 5804  -1.053   1.102   5.530  0.0635  0.5175 -0.5458
   44POPC   H2X 5805  -1.114   1.175   5.587  1.2871  1.7301 -0.7489
   44POPC   H2Y 5806  -1.068   0.997   5.564 -3.1123 -0.1226 -3.3715
   44POPC   C23 5807  -0.572   0.836   5.108 -0.3531  0.2570  0.4944
   44POPC   H3R 5808  -0.673   0.793   5.121 -0.9835  1.3030 -0.7492
   44POPC   H3S 5809  -0.505   0.747   5.111  2.2500  2.0405 -0.7568
   44POPC   C24 5810  -0.564   0.910   4.974  0.0391  0.5254 -0.4253
   44POPC   H4R 5811  -0.625   1.003   4.977 -1.5085 -0.4520  0.1860
   44POPC   H4S 5812  -0.602   0.856   4.884 -0.5139  1.2201 -0.6183
   44POPC   C25 5813  -0.419   0.945   4.944  0.2852  0.0667 -0.3065
   44POPC   H5R 5814  -0.357   0.855   4.925 -0.1462 -0.6904  1.6966
   44POPC   H5S 5815  -0.377   0.999   5.031 -0.2032  0.1016 -0.0887
   44POPC   C26 5816  -0.396   1.041   4.819 -0.0857 -0.3290  0.0862
   44POPC   H6R 5817  -0.457   1.131   4.845  0.6937 -0.5010  2.8609
   44POPC   H6S 5818  -0.438   0.990   4.730  2.5051  0.1139 -1.4811
   44POPC   C27 5819  -0.245   1.055   4.783 -0.0236  0.5665 -0.5768
   44POPC   H7R 5820  -0.205   0.958   4.745 -2.4025 -0.6718 -0.1479
   44POPC   H7S 5821  -0.195   1.079   4.879  0.2960 -2.0850  0.0109
   44POPC   C28 5822  -0.232   1.167   4.677 -0.5310  0.3296  0.0282
   44POPC   H8R 5823  -0.257   1.263   4.726  0.8786  0.0288  1.4133
   44POPC   H8S 5824  -0.317   1.157   4.607 -0.2189  0.3543 -0.3539
   44POPC   C29 5825  -0.103   1.166   4.603  0.1834  0.5642 -0.2967
   44POPC   H91 5826  -0.016   1.193   4.665  2.0464  0.1073 -2.5936
   44POPC  C210 5827  -0.085   1.123   4.475 -0.3248  0.4246 -0.7358
   44POPC  H101 5828   0.022   1.113   4.449 -0.2902 -0.7962 -0.2029
   44POPC  C211 5829  -0.175   1.047   4.388  0.0010 -0.2812 -0.3579
   44POPC  H11R 5830  -0.263   1.000   4.436  1.3042 -2.7603 -0.2216
   44POPC  H11S 5831  -0.117   0.962   4.347  0.3956  0.1616 -0.7302
   44POPC  C212 5832  -0.229   1.132   4.277 -0.2191 -0.2380  0.3044
   44POPC  H12R 5833  -0.147   1.164   4.210 -2.2426  2.6121 -1.0219
   44POPC  H12S 5834  -0.269   1.225   4.324  0.9810  1.3932 -1.7246
   44POPC  C213 5835  -0.338   1.067   4.190 -0.5414  0.0724  0.1087
   44POPC  H13R 5836  -0.426   1.024   4.243 -0.5433  0.0210  0.0644
   44POPC  H13S 5837  -0.284   0.977   4.154 -0.2652 -0.4050  1.6628
   44POPC  C214 5838  -0.386   1.154   4.075 -0.7044  0.8826 -0.0149
   44POPC  H14R 5839  -0.294   1.160   4.012  1.5725  2.5360  3.2119
   44POPC  H14S 5840  -0.403   1.250   4.129  0.8184  1.0896  0.1420
   44POPC  C215 5841  -0.503   1.092   4.007  0.3472  0.6308  0.5389
   44POPC  H15R 5842  -0.526   1.174   3.936  3.6562  1.3944  0.1619
   44POPC  H15S 5843  -0.589   1.069   4.073  0.8543 -2.2620  0.3353
   44POPC  C216 5844  -0.449   0.976   3.923 -0.1359  0.1833 -0.5338
   44POPC  H16R 5845  -0.432   0.891   3.992  0.3955  0.1505 -0.7022
   44POPC  H16S 5846  -0.348   1.000   3.882  0.7402  1.3690  2.0701
   44POPC  C217 5847  -0.554   0.918   3.825  0.1092 -0.3333 -0.5836
   44POPC  H17R 5848  -0.510   0.844   3.755  0.0467 -0.3529 -0.6025
   44POPC  H17S 5849  -0.602   0.990   3.755 -0.7721  0.5979  0.9140
   44POPC  C218 5850  -0.669   0.846   3.892  0.1840 -0.4045 -1.3232
   44POPC  H18R 5851  -0.628   0.776   3.968  2.2153  0.9363 -1.1079
   44POPC  H18S 5852  -0.735   0.783   3.828 -1.3727 -0.6891  0.4815
   44POPC  H18T 5853  -0.717   0.931   3.946  0.7631  1.2718 -3.3185
   44POPC   C33 5854  -1.081   1.125   5.383  0.2823 -0.7876  0.0933
   44POPC   H3X 5855  -1.007   1.067   5.323 -1.0189  0.0826 -2.5080
   44POPC   H3Y 5856  -1.060   1.230   5.354 -0.0412 -0.8713 -0.4510
   44POPC   C34 5857  -1.222   1.072   5.342  0.3448  0.3147 -0.2081
   44POPC   H4X 5858  -1.296   1.134   5.396 -1.8772  0.4277 -3.1890
   44POPC   H4Y 5859  -1.230   0.970   5.387 -0.1098  0.2444 -0.4416
   44POPC   C35 5860  -1.250   1.051   5.192 -0.0376  0.1880  0.4570
   44POPC   H5X 5861  -1.186   1.126   5.141  3.0639  0.3521  4.1107
   44POPC   H5Y 5862  -1.358   1.065   5.172 -0.0215 -1.3251 -0.9122
   44POPC   C36 5863  -1.220   0.908   5.133 -0.2957 -0.3563  0.3407
   44POPC   H6X 5864  -1.270   0.824   5.185 -0.0585 -0.3969  0.5027
   44POPC   H6Y 5865  -1.113   0.898   5.163  0.3635  0.7568 -1.4846
   44POPC   C37 5866  -1.239   0.888   4.989 -0.4876 -0.0544  0.4592
   44POPC   H7X 5867  -1.210   0.974   4.924 -1.6849  1.4643  1.8589
   44POPC   H7Y 5868  -1.346   0.870   4.964 -0.5090  2.3104 -1.5514
   44POPC   C38 5869  -1.146   0.768   4.936 -0.1521  0.2358 -0.0719
   44POPC   H8X 5870  -1.172   0.675   4.991  0.1567  0.6350  0.7727
   44POPC   H8Y 5871  -1.038   0.782   4.958  0.0507 -1.4329  0.0808
   44POPC   C39 5872  -1.151   0.744   4.787 -0.6213 -0.2596 -0.3451
   44POPC   H9X 5873  -1.076   0.667   4.758 -0.8101 -0.6299  0.1168
   44POPC   H9Y 5874  -1.119   0.835   4.733  1.2654  0.5629  1.9688
   44POPC  C310 5875  -1.290   0.701   4.736 -0.3708  0.0692  0.7068
   44POPC  H10X 5876  -1.369   0.766   4.780 -1.5088 -1.0332  0.3569
   44POPC  H10Y 5877  -1.305   0.599   4.779  2.4121  0.1709  2.1778
   44POPC  C311 5878  -1.307   0.694   4.579 -0.2622  0.2784 -1.2070
   44POPC  H11X 5879  -1.209   0.672   4.532  0.8443  1.6689  0.3274
   44POPC  H11Y 5880  -1.342   0.790   4.535 -1.5693 -0.2512 -1.3800
   44POPC  C312 5881  -1.417   0.592   4.537 -0.1970 -0.4605  0.2901
   44POPC  H12X 5882  -1.390   0.499   4.591 -2.1962 -1.4980 -0.4047
   44POPC  H12Y 5883  -1.406   0.582   4.427  1.1898  1.9436  0.1358
   44POPC  C313 5884  -1.559   0.628   4.566 -0.5845  0.1068 -0.1601
   44POPC  H13X 5885  -1.573   0.725   4.515  1.1454  0.3233 -0.2561
   44POPC  H13Y 5886  -1.563   0.629   4.677 -0.4174 -1.7121 -0.1041
   44POPC  C314 5887  -1.663   0.525   4.514  0.0350  0.0472  0.5142
   44POPC  H14X 5888  -1.655   0.436   4.579 -0.7584 -0.6235 -0.2777
   44POPC  H14Y 5889  -1.629   0.479   4.419  2.3127 -1.1615  1.8144
   44POPC  C315 5890  -1.810   0.581   4.508  0.5735 -0.0583  0.0907
   44POPC  H15X 5891  -1.825   0.665   4.437 -0.5350  0.7359  1.2075
   44POPC  H15Y 5892  -1.836   0.620   4.608 -0.0712  1.2411 -0.5614
   44POPC  C316 5893  -1.913   0.464   4.478 -0.2153 -0.8403 -0.4978
   44POPC  H16X 5894  -1.929   0.409   4.573 -2.4531 -0.6254 -0.6975
   44POPC  H16Y 5895  -1.886   0.389   4.400  0.3521  0.0478 -1.1840
   44POPC  H16Z 5896  -2.007   0.521   4.460  1.2796  1.2569 -2.2632
   45POPC     N 5897   1.702   5.769   6.124  0.5459  0.5316  0.0167
   45POPC   C12 5898   1.578   5.740   6.049 -0.5286 -0.3936  0.2491
   45POPC  H12A 5899   1.555   5.829   5.992 -0.0594 -0.6476 -0.3431
   45POPC  H12B 5900   1.492   5.735   6.114 -1.7641 -1.3642 -1.3577
   45POPC   C13 5901   1.694   5.896   6.200 -0.1283 -0.4279 -0.0807
   45POPC  H13A 5902   1.795   5.919   6.232  0.2101 -0.6499 -0.9487
   45POPC  H13B 5903   1.666   5.973   6.130 -3.8886 -0.1567  1.4978
   45POPC  H13C 5904   1.622   5.899   6.281 -0.2948 -1.3471 -0.1898
   45POPC   C14 5905   1.721   5.658   6.222 -0.0053 -0.4593  0.1825
   45POPC  H14A 5906   1.640   5.655   6.293 -0.4887  2.4049 -0.1206
   45POPC  H14B 5907   1.717   5.561   6.176  2.7796 -0.5970  0.0553
   45POPC  H14C 5908   1.812   5.680   6.278 -0.3501  4.3574 -0.6805
   45POPC   C15 5909   1.827   5.777   6.043  0.2876  0.0468  0.4653
   45POPC  H15A 5910   1.906   5.798   6.113  0.8558  0.7709 -0.3724
   45POPC  H15B 5911   1.830   5.862   5.976  2.9582 -1.0189 -0.9156
   45POPC  H15C 5912   1.858   5.686   5.993  1.5389 -0.5724  2.2616
   45POPC   C11 5913   1.571   5.610   5.973  0.3212  0.5275 -0.4636
   45POPC  H11A 5914   1.675   5.594   5.937  1.0625 -1.6258  2.2306
   45POPC  H11B 5915   1.501   5.616   5.887 -3.7815 -0.8033  2.4861
   45POPC     P 5916   1.397   5.428   6.052 -0.0804  0.0674 -0.3987
   45POPC   O13 5917   1.296   5.511   6.119  0.6472 -0.6367 -0.0683
   45POPC   O14 5918   1.405   5.287   6.095 -0.2267  0.6307  0.0107
   45POPC   O12 5919   1.531   5.497   6.052 -0.7951  0.3176  0.2758
   45POPC   O11 5920   1.376   5.429   5.892  0.2281  0.1973  0.4030
   45POPC    C1 5921   1.385   5.306   5.820 -0.7413 -0.1875  0.1458
   45POPC    HA 5922   1.307   5.237   5.857 -0.2460 -1.0487 -0.3970
   45POPC    HB 5923   1.483   5.254   5.831 -2.8327 -4.7635 -0.8061
   45POPC    C2 5924   1.372   5.319   5.668  0.4415  0.1546  0.2193
   45POPC    HS 5925   1.267   5.352   5.650  0.0166 -1.1642  0.1527
   45POPC   O21 5926   1.393   5.189   5.604  0.7555 -0.0008  0.5116
   45POPC   C21 5927   1.284   5.121   5.568  0.0824  0.5512  0.0601
   45POPC   O22 5928   1.172   5.154   5.600  0.5063 -0.6086 -0.2005
   45POPC   C22 5929   1.305   4.994   5.490 -0.4889  0.5480 -0.5062
   45POPC   H2R 5930   1.376   4.923   5.537 -0.1062  1.4380  0.2898
   45POPC   H2S 5931   1.349   5.027   5.394  1.4945  1.4271  0.6459
   45POPC    C3 5932   1.462   5.431   5.615 -0.2982 -0.2364  0.4891
   45POPC    HX 5933   1.562   5.401   5.653 -0.5796  0.1778  1.5984
   45POPC    HY 5934   1.441   5.532   5.657  0.9119 -0.1772  0.9884
   45POPC   O31 5935   1.475   5.444   5.469  0.0869 -0.6232 -0.0867
   45POPC   C31 5936   1.376   5.510   5.413  0.5666  0.0052 -0.3933
   45POPC   O32 5937   1.273   5.544   5.469 -0.4303  0.4584 -0.0851
   45POPC   C32 5938   1.407   5.515   5.257  0.6641 -0.6210  0.2139
   45POPC   H2X 5939   1.454   5.418   5.231 -0.5050 -1.0966 -0.2054
   45POPC   H2Y 5940   1.478   5.598   5.240  0.1353 -0.0412  0.7503
   45POPC   C23 5941   1.182   4.912   5.460  0.0348 -0.5386 -0.8098
   45POPC   H3R 5942   1.113   4.907   5.547  1.6379  0.1557  0.5592
   45POPC   H3S 5943   1.216   4.810   5.430 -1.5560 -0.8635 -1.6270
   45POPC   C24 5944   1.108   4.972   5.339  0.0573 -0.6987  0.2735
   45POPC   H4R 5945   1.175   4.993   5.253 -0.4780  1.2079  0.2686
   45POPC   H4S 5946   1.063   5.072   5.359  1.5362 -0.3830  2.2470
   45POPC   C25 5947   0.988   4.888   5.278 -0.0745  0.2740  0.0483
   45POPC   H5R 5948   0.914   4.946   5.218 -1.2134 -2.6911 -1.6411
   45POPC   H5S 5949   0.935   4.851   5.368 -3.6408  3.9665 -0.2047
   45POPC   C26 5950   1.027   4.759   5.198  0.2463  0.7451  0.2652
   45POPC   H6R 5951   0.943   4.690   5.180  0.4298  0.4590  0.4970
   45POPC   H6S 5952   1.100   4.712   5.267  0.4016 -0.3671 -0.6280
   45POPC   C27 5953   1.096   4.785   5.063 -0.7086 -0.3634 -0.2835
   45POPC   H7R 5954   1.133   4.693   5.012  0.7476 -0.2985  0.6276
   45POPC   H7S 5955   1.169   4.868   5.072 -2.3498  1.0164  1.0229
   45POPC   C28 5956   1.004   4.854   4.958 -0.3153 -0.2373 -0.0404
   45POPC   H8R 5957   0.982   4.956   4.996  0.7853  0.9752 -2.3973
   45POPC   H8S 5958   0.906   4.802   4.952 -0.8018  0.4006  1.7383
   45POPC   C29 5959   1.058   4.855   4.815 -0.0430  0.0762 -0.5180
   45POPC   H91 5960   1.166   4.838   4.807  0.0020 -1.0732  1.8482
   45POPC  C210 5961   0.987   4.858   4.704 -0.7123  0.5057  0.0113
   45POPC  H101 5962   1.046   4.862   4.612 -0.6544 -0.3960  0.0000
   45POPC  C211 5963   0.838   4.877   4.690  0.0056 -0.1884  0.1766
   45POPC  H11R 5964   0.815   4.968   4.630 -0.0187 -0.8600 -0.8661
   45POPC  H11S 5965   0.786   4.886   4.787 -2.3069 -0.6852 -0.9379
   45POPC  C212 5966   0.785   4.752   4.611  0.1005  0.3169  0.2121
   45POPC  H12R 5967   0.816   4.656   4.659 -0.4214 -0.7359 -1.4595
   45POPC  H12S 5968   0.830   4.741   4.510 -0.3234 -1.7222  0.1976
   45POPC  C213 5969   0.628   4.753   4.604  0.0024  0.2662  0.3590
   45POPC  H13R 5970   0.592   4.858   4.601  0.6120  0.5896  2.6586
   45POPC  H13S 5971   0.585   4.700   4.691 -3.6453  1.0462 -0.7935
   45POPC  C214 5972   0.573   4.668   4.479  0.0254 -0.3687 -0.1335
   45POPC  H14R 5973   0.596   4.560   4.476  1.8436 -0.0479  0.9185
   45POPC  H14S 5974   0.630   4.718   4.398 -1.7131 -0.5717 -1.5566
   45POPC  C215 5975   0.423   4.702   4.462 -0.0124  0.0228 -0.3227
   45POPC  H15R 5976   0.406   4.811   4.450  2.1317  0.2079 -2.5324
   45POPC  H15S 5977   0.390   4.689   4.567  0.4744 -0.6903 -0.2554
   45POPC  C216 5978   0.352   4.637   4.344 -0.2129  0.6456 -0.2210
   45POPC  H16R 5979   0.241   4.645   4.355 -0.0974  0.8465  0.9468
   45POPC  H16S 5980   0.369   4.527   4.342 -0.3521  0.6298 -1.6269
   45POPC  C217 5981   0.385   4.697   4.205  0.9018 -0.3647 -0.0537
   45POPC  H17R 5982   0.496   4.703   4.204  0.9652 -1.2866  0.7771
   45POPC  H17S 5983   0.339   4.798   4.206  1.9074  0.0962  0.6509
   45POPC  C218 5984   0.330   4.620   4.087 -0.0733  0.9462 -0.5294
   45POPC  H18R 5985   0.375   4.648   3.989 -1.6013 -1.1792 -1.9368
   45POPC  H18S 5986   0.220   4.624   4.075 -0.0621 -0.3560 -1.3268
   45POPC  H18T 5987   0.353   4.511   4.096 -1.7597  0.5547 -0.6154
   45POPC   C33 5988   1.268   5.533   5.182  0.2366  0.6830  0.4140
   45POPC   H3X 5989   1.251   5.640   5.208  1.0322  0.4414  2.0400
   45POPC   H3Y 5990   1.183   5.483   5.232 -1.4758  2.9160 -0.1082
   45POPC   C34 5991   1.271   5.513   5.027 -0.1737 -0.2202 -0.8815
   45POPC   H4X 5992   1.341   5.584   4.978  0.6520  0.0827  0.6849
   45POPC   H4Y 5993   1.179   5.548   4.975 -0.3385 -1.7049 -1.6452
   45POPC   C35 5994   1.308   5.368   4.989 -0.1274 -0.2876  0.3631
   45POPC   H5X 5995   1.215   5.309   4.978 -0.8045  0.9078 -0.4929
   45POPC   H5Y 5996   1.376   5.335   5.070  0.8435 -0.1205 -0.3557
   45POPC   C36 5997   1.377   5.359   4.844  0.4201  0.6787 -0.3055
   45POPC   H6X 5998   1.310   5.416   4.776  0.7486  0.4253 -0.8566
   45POPC   H6Y 5999   1.380   5.253   4.810  2.7016 -1.0090  4.3465
   45POPC   C37 6000   1.520   5.405   4.835 -0.1070 -0.0249  0.2390
   45POPC   H7X 6001   1.585   5.349   4.905  0.0605  2.6404  2.3959
   45POPC   H7Y 6002   1.536   5.513   4.857  1.2128 -0.0989 -0.2672
   45POPC   C38 6003   1.576   5.395   4.688 -0.2128 -0.6512 -0.2317
   45POPC   H8X 6004   1.534   5.304   4.640 -2.7419  2.1912 -4.0519
   45POPC   H8Y 6005   1.687   5.390   4.694 -0.2037 -0.4070 -0.1764
   45POPC   C39 6006   1.519   5.506   4.591 -0.9983  0.5776  0.0815
   45POPC   H9X 6007   1.566   5.599   4.628 -0.2476 -0.4363  1.8187
   45POPC   H9Y 6008   1.409   5.514   4.603 -0.9674  0.0501  0.7459
   45POPC  C310 6009   1.567   5.504   4.451  0.2971 -0.9047  0.5334
   45POPC  H10X 6010   1.554   5.399   4.416  0.1086  0.0608 -2.5501
   45POPC  H10Y 6011   1.674   5.534   4.451 -0.1484  0.8297 -0.7352
   45POPC  C311 6012   1.478   5.591   4.357 -0.3127  0.3324  0.8490
   45POPC  H11X 6013   1.373   5.560   4.375 -0.4951 -0.7922 -1.6562
   45POPC  H11Y 6014   1.498   5.568   4.250 -2.3584 -0.8086  0.6628
   45POPC  C312 6015   1.508   5.737   4.386 -0.2624 -0.1959 -0.0865
   45POPC  H12X 6016   1.615   5.756   4.363 -0.5865  0.2085 -1.3496
   45POPC  H12Y 6017   1.481   5.766   4.490 -0.8445  0.8688 -0.5142
   45POPC  C313 6018   1.414   5.836   4.303  0.8478  0.0525  0.1590
   45POPC  H13X 6019   1.306   5.809   4.312  0.4359  1.6718  0.5268
   45POPC  H13Y 6020   1.441   5.839   4.195  2.1506  1.5823  0.4850
   45POPC  C314 6021   1.420   5.986   4.333  0.4005 -0.5580 -0.3354
   45POPC  H14X 6022   1.521   6.032   4.335  0.5944 -0.9900  1.8237
   45POPC  H14Y 6023   1.402   6.003   4.441  1.0301 -0.4786 -0.2421
   45POPC  C315 6024   1.319   6.064   4.252  0.5652  0.4847 -0.3623
   45POPC  H15X 6025   1.233   5.996   4.237  1.6033 -0.9752  0.0702
   45POPC  H15Y 6026   1.358   6.068   4.148  0.1220 -1.3215 -0.6343
   45POPC  C316 6027   1.284   6.204   4.303 -0.4348  0.8942  0.0952
   45POPC  H16X 6028   1.266   6.198   4.413  3.4270  0.1713  0.8532
   45POPC  H16Y 6029   1.184   6.230   4.264 -1.8211 -1.4032  1.8555
   45POPC  H16Z 6030   1.366   6.277   4.285  0.6812 -0.5562 -1.0201
   46POPC     N 6031   0.125   4.595   6.086  0.5906  0.3684  0.0897
   46POPC   C12 6032   0.265   4.559   6.075  0.0273 -0.0611  0.1933
   46POPC  H12A 6033   0.271   4.452   6.092  1.0408  0.1950  1.6551
   46POPC  H12B 6034   0.315   4.603   6.160 -0.3797 -0.9702  0.9183
   46POPC   C13 6035   0.037   4.521   5.989 -0.2710 -0.7784  0.0376
   46POPC  H13A 6036  -0.066   4.551   5.990 -0.4043 -0.5408 -3.8507
   46POPC  H13B 6037   0.064   4.542   5.886  1.7099  1.5866  0.9601
   46POPC  H13C 6038   0.031   4.415   6.012 -0.5813 -0.8850 -0.5153
   46POPC   C14 6039   0.073   4.560   6.225  0.6234 -0.0622  0.0667
   46POPC  H14A 6040   0.058   4.455   6.247 -2.4913  0.5646  1.5082
   46POPC  H14B 6041   0.134   4.603   6.303  0.7766  0.2226 -0.2111
   46POPC  H14C 6042  -0.030   4.593   6.229 -0.4199 -2.4871 -2.6937
   46POPC   C15 6043   0.096   4.744   6.073 -0.9186  0.1777 -0.2087
   46POPC  H15A 6044   0.125   4.790   6.166  0.7872  0.0581 -0.6432
   46POPC  H15B 6045  -0.010   4.761   6.062 -0.9259  0.3649  0.1440
   46POPC  H15C 6046   0.148   4.795   5.993  0.8949  0.0961  0.8807
   46POPC   C11 6047   0.338   4.604   5.944 -0.0409  0.4422 -0.3204
   46POPC  H11A 6048   0.295   4.543   5.861 -0.8874 -0.2162  0.5869
   46POPC  H11B 6049   0.445   4.574   5.951  0.0419  0.5835 -0.9026
   46POPC     P 6050   0.405   4.851   5.992  0.1252  0.2229 -0.3438
   46POPC   O13 6051   0.485   4.794   6.108  0.2337  0.3695 -0.5958
   46POPC   O14 6052   0.330   4.975   6.029  0.5384  0.1729 -0.3181
   46POPC   O12 6053   0.315   4.744   5.923 -0.3956 -0.1788 -0.0371
   46POPC   O11 6054   0.508   4.892   5.882 -0.4350 -0.1411  0.0243
   46POPC    C1 6055   0.565   4.797   5.786  0.0111  0.2597 -0.8126
   46POPC    HA 6056   0.490   4.732   5.736  0.2829  0.5630 -1.6406
   46POPC    HB 6057   0.633   4.729   5.841 -1.3950  0.1668  0.8883
   46POPC    C2 6058   0.655   4.880   5.690 -0.2329 -0.5372  0.1721
   46POPC    HS 6059   0.733   4.921   5.757 -0.8364  1.3378 -0.2153
   46POPC   O21 6060   0.578   4.985   5.635  0.4539  0.0171 -0.3228
   46POPC   C21 6061   0.645   5.073   5.565  1.0232 -0.1528  0.0074
   46POPC   O22 6062   0.764   5.064   5.531 -0.2016 -0.0479  0.0552
   46POPC   C22 6063   0.561   5.199   5.530  0.2738  0.3728 -0.1490
   46POPC   H2R 6064   0.562   5.263   5.620 -2.9292  0.7487 -0.2554
   46POPC   H2S 6065   0.456   5.164   5.520  0.6324 -1.4760  1.8779
   46POPC    C3 6066   0.734   4.791   5.592  0.3708 -0.3193 -0.1400
   46POPC    HX 6067   0.776   4.713   5.659 -1.9916 -0.2999  1.4724
   46POPC    HY 6068   0.819   4.855   5.560 -0.2064  1.8308  2.3402
   46POPC   O31 6069   0.665   4.737   5.475  0.0628 -0.2407  0.4658
   46POPC   C31 6070   0.629   4.616   5.479 -0.5794  0.0583 -0.7823
   46POPC   O32 6071   0.659   4.534   5.563 -0.2068  0.4051  0.0763
   46POPC   C32 6072   0.544   4.576   5.356 -0.5309 -0.6064 -0.0963
   46POPC   H2X 6073   0.586   4.636   5.272  0.4194 -1.6335 -0.3798
   46POPC   H2Y 6074   0.439   4.610   5.366 -0.6264 -0.8301 -0.3338
   46POPC   C23 6075   0.602   5.265   5.398 -0.4531  0.3384  0.0120
   46POPC   H3R 6076   0.708   5.297   5.391  0.1125 -1.6104 -1.1042
   46POPC   H3S 6077   0.539   5.356   5.385 -0.2412  0.8177  1.9939
   46POPC   C24 6078   0.584   5.176   5.277  0.5269  0.0641 -0.0543
   46POPC   H4R 6079   0.491   5.116   5.279  0.5263 -0.0232 -1.5252
   46POPC   H4S 6080   0.664   5.099   5.283 -0.8202 -1.2535  2.8287
   46POPC   C25 6081   0.588   5.256   5.142  0.3323  0.5661 -0.2126
   46POPC   H5R 6082   0.529   5.350   5.144 -1.6107 -0.5985  0.1018
   46POPC   H5S 6083   0.534   5.192   5.070  1.2834 -1.0395  0.4307
   46POPC   C26 6084   0.718   5.290   5.083  0.1361  0.2042 -0.0835
   46POPC   H6R 6085   0.775   5.195   5.086 -0.0539  0.1259  1.5156
   46POPC   H6S 6086   0.781   5.354   5.148  0.2783 -0.0598  0.0396
   46POPC   C27 6087   0.720   5.351   4.938 -0.4541 -0.3115  0.5944
   46POPC   H7R 6088   0.663   5.447   4.931  2.4821  1.6163  1.4057
   46POPC   H7S 6089   0.663   5.289   4.866  0.6295 -1.8539  1.0041
   46POPC   C28 6090   0.865   5.393   4.875  0.5827  0.5784  0.1908
   46POPC   H8R 6091   0.947   5.328   4.913 -0.8367 -0.6968  1.2057
   46POPC   H8S 6092   0.883   5.495   4.916  0.8362 -0.2178  2.1913
   46POPC   C29 6093   0.867   5.395   4.719  0.0376 -0.4066  0.3152
   46POPC   H91 6094   0.806   5.474   4.673 -0.0274  0.1912  1.3977
   46POPC  C210 6095   0.937   5.317   4.630  0.0239 -0.5936 -0.2771
   46POPC  H101 6096   0.922   5.320   4.521  0.6182  1.0850 -0.3356
   46POPC  C211 6097   1.040   5.218   4.674  0.3121 -0.5922 -0.2347
   46POPC  H11R 6098   0.991   5.121   4.701  1.3955 -1.1080 -0.0548
   46POPC  H11S 6099   1.098   5.250   4.764 -1.2605 -0.4674  0.7788
   46POPC  C212 6100   1.139   5.181   4.573 -0.1312 -0.6575  0.1124
   46POPC  H12R 6101   1.223   5.116   4.606  1.7009  0.8200 -1.3849
   46POPC  H12S 6102   1.186   5.265   4.517 -0.3650  0.1307  1.0758
   46POPC  C213 6103   1.075   5.103   4.459  0.4079  0.5738 -0.1625
   46POPC  H13R 6104   0.993   5.164   4.416  0.1379  0.6627  0.4768
   46POPC  H13S 6105   1.025   5.011   4.497 -2.0487  2.1857  0.7086
   46POPC  C214 6106   1.171   5.075   4.340 -0.6351 -0.8354  0.3227
   46POPC  H14R 6107   1.241   4.994   4.371 -0.9104 -1.3395 -0.3470
   46POPC  H14S 6108   1.225   5.168   4.313 -1.7506 -0.5767 -1.1008
   46POPC  C215 6109   1.095   5.029   4.215 -0.0952 -0.1700 -0.2916
   46POPC  H15R 6110   1.168   4.992   4.139  0.5119 -0.6347  0.5015
   46POPC  H15S 6111   1.041   5.105   4.154 -2.2333 -1.6150 -0.2973
   46POPC  C216 6112   0.990   4.922   4.237  0.4011  0.9427  0.5375
   46POPC  H16R 6113   0.903   4.956   4.296 -1.8109 -2.3787 -0.4951
   46POPC  H16S 6114   1.032   4.836   4.293 -1.4920  0.2852  1.0193
   46POPC  C217 6115   0.940   4.855   4.109 -0.1565 -0.0972 -0.2592
   46POPC  H17R 6116   1.012   4.779   4.073  2.0159  2.0554 -0.7205
   46POPC  H17S 6117   0.928   4.938   4.036  1.0240  1.1416  0.8978
   46POPC  C218 6118   0.798   4.796   4.120 -0.1655 -0.6368 -0.2927
   46POPC  H18R 6119   0.725   4.863   4.169  0.6704  0.2693 -0.2591
   46POPC  H18S 6120   0.809   4.703   4.180  1.1526  0.0010  0.4967
   46POPC  H18T 6121   0.761   4.761   4.021  0.9000 -0.4792 -0.7621
   46POPC   C33 6122   0.550   4.429   5.319 -0.3745  0.4406 -0.2435
   46POPC   H3X 6123   0.466   4.403   5.251 -0.1702  2.4872 -1.3637
   46POPC   H3Y 6124   0.525   4.372   5.410 -1.1827 -0.0925 -0.7867
   46POPC   C34 6125   0.676   4.381   5.248 -0.3669 -0.1516  0.1481
   46POPC   H4X 6126   0.690   4.271   5.254  1.0118 -0.0844 -1.3475
   46POPC   H4Y 6127   0.769   4.424   5.290 -0.1527  0.6414 -1.1111
   46POPC   C35 6128   0.686   4.442   5.101 -0.7400 -0.0556 -0.1942
   46POPC   H5X 6129   0.679   4.552   5.099 -1.4289 -0.0884  0.1000
   46POPC   H5Y 6130   0.593   4.397   5.058 -0.4208  0.9734 -2.0665
   46POPC   C36 6131   0.817   4.393   5.035  0.0318  0.3219 -0.2904
   46POPC   H6X 6132   0.830   4.283   5.044  0.5941  0.3112 -1.0795
   46POPC   H6Y 6133   0.901   4.440   5.090  0.4075 -2.5587  1.8054
   46POPC   C37 6134   0.831   4.430   4.890 -0.7479 -0.1982  0.0002
   46POPC   H7X 6135   0.920   4.373   4.856 -0.2916  0.5535 -0.0800
   46POPC   H7Y 6136   0.864   4.536   4.885  0.1477 -0.2715  2.6606
   46POPC   C38 6137   0.706   4.398   4.803 -0.0143 -0.0651 -0.4999
   46POPC   H8X 6138   0.722   4.450   4.706 -1.6439  0.5053 -0.4918
   46POPC   H8Y 6139   0.616   4.455   4.836  0.6153 -0.3271  1.8413
   46POPC   C39 6140   0.665   4.250   4.776  0.6829  0.3879  0.1252
   46POPC   H9X 6141   0.586   4.261   4.698  1.0404 -1.3117 -0.5198
   46POPC   H9Y 6142   0.633   4.199   4.869 -1.9330  0.2686 -0.7758
   46POPC  C310 6143   0.767   4.168   4.699  0.5670  0.4050  0.2810
   46POPC  H10X 6144   0.871   4.159   4.739  0.2712 -1.8238  0.6465
   46POPC  H10Y 6145   0.783   4.218   4.601 -1.3776 -0.9189 -0.7637
   46POPC  C311 6146   0.717   4.026   4.665  0.2737  0.1411  0.6320
   46POPC  H11X 6147   0.618   4.023   4.614 -0.0358 -0.4570  1.2563
   46POPC  H11Y 6148   0.708   3.966   4.758 -0.4267 -1.5802 -0.4984
   46POPC  C312 6149   0.823   3.956   4.570 -0.8003  0.2876 -0.5257
   46POPC  H12X 6150   0.777   3.857   4.549 -1.7494  0.6994 -0.4460
   46POPC  H12Y 6151   0.923   3.938   4.615 -1.6017 -0.7743  0.9215
   46POPC  C313 6152   0.838   4.023   4.434 -0.0165 -0.1445 -0.1096
   46POPC  H13X 6153   0.894   4.116   4.458 -0.1314 -0.1926  0.3707
   46POPC  H13Y 6154   0.735   4.045   4.397  0.4448  0.4921 -1.0366
   46POPC  C314 6155   0.921   3.939   4.340 -0.0543  0.3906  0.1056
   46POPC  H14X 6156   0.874   3.840   4.323  0.2584  0.1396  0.6783
   46POPC  H14Y 6157   1.020   3.923   4.389 -1.0297  0.4503  2.1904
   46POPC  C315 6158   0.937   3.993   4.202 -0.7859 -0.1945  0.6372
   46POPC  H15X 6159   0.965   4.101   4.199 -0.2539 -0.3551 -0.4216
   46POPC  H15Y 6160   0.835   3.997   4.158 -0.1915  1.4544 -0.6703
   46POPC  C316 6161   1.020   3.908   4.103  0.0711 -0.2909 -0.2306
   46POPC  H16X 6162   1.118   3.877   4.144  0.3973  0.5156 -0.3862
   46POPC  H16Y 6163   1.056   3.963   4.014 -1.6716  1.4455  0.0779
   46POPC  H16Z 6164   0.966   3.815   4.073  1.4608 -0.5101 -2.3031
   47POPC     N 6165   0.977   1.098   5.965 -0.5441 -0.5244 -0.0312
   47POPC   C12 6166   1.091   1.062   5.868 -0.1825 -0.1093 -0.0947
   47POPC  H12A 6167   1.139   0.973   5.908  0.8374  0.1485 -0.6889
   47POPC  H12B 6168   1.162   1.143   5.878 -0.1924 -0.0557 -0.4255
   47POPC   C13 6169   0.892   1.215   5.922 -0.4612 -0.0275  0.4502
   47POPC  H13A 6170   0.838   1.253   6.008 -0.7103 -1.3325  0.8830
   47POPC  H13B 6171   0.959   1.288   5.879  0.7087 -1.7383 -0.7711
   47POPC  H13C 6172   0.820   1.200   5.842 -0.4671  3.1298 -0.2679
   47POPC   C14 6173   0.891   0.972   5.990 -0.2497  0.0518 -0.4148
   47POPC  H14A 6174   0.875   0.915   5.900 -2.1431 -0.4435  0.1877
   47POPC  H14B 6175   0.938   0.903   6.057 -0.2937  0.1312 -0.3009
   47POPC  H14C 6176   0.792   0.993   6.028  0.7698  0.7571  2.0739
   47POPC   C15 6177   1.034   1.139   6.103  0.1654  0.1851 -0.5001
   47POPC  H15A 6178   1.104   1.222   6.104  2.4077 -1.6150 -1.5039
   47POPC  H15B 6179   1.096   1.058   6.139 -1.8404  0.3663  4.1976
   47POPC  H15C 6180   0.955   1.168   6.172  0.1897 -1.5645  0.3024
   47POPC   C11 6181   1.063   1.046   5.717 -0.6373  0.1128  0.0733
   47POPC  H11A 6182   1.156   1.014   5.664 -0.8888  0.0677 -0.3494
   47POPC  H11B 6183   1.034   1.144   5.674  5.1169  1.3086 -2.0003
   47POPC     P 6184   1.024   0.790   5.690 -0.3607 -0.0973 -0.0527
   47POPC   O13 6185   0.900   0.718   5.671 -0.9000  0.4453  0.3203
   47POPC   O14 6186   1.100   0.762   5.813 -0.3169  0.0567 -0.1373
   47POPC   O12 6187   0.972   0.939   5.695 -0.4126  0.3678  0.1456
   47POPC   O11 6188   1.113   0.786   5.561  0.2798  0.2815  0.2842
   47POPC    C1 6189   1.059   0.830   5.429 -0.0311  0.0901 -0.6350
   47POPC    HA 6190   1.146   0.856   5.364  0.2698 -2.4768 -1.3729
   47POPC    HB 6191   1.001   0.923   5.448  1.1095  0.7679 -0.3633
   47POPC    C2 6192   0.971   0.728   5.361 -0.0567  0.4672  0.3078
   47POPC    HS 6193   0.885   0.701   5.426 -0.6445  0.8688 -0.2943
   47POPC   O21 6194   1.057   0.616   5.331 -0.1985  0.0003  0.1915
   47POPC   C21 6195   0.993   0.509   5.306 -0.6551 -0.0760  0.2110
   47POPC   O22 6196   0.877   0.484   5.333 -0.6484  0.4890 -0.2954
   47POPC   C22 6197   1.096   0.402   5.262  0.0203 -0.3238 -0.1973
   47POPC   H2R 6198   1.155   0.376   5.352  1.6210 -0.0720 -1.1320
   47POPC   H2S 6199   1.167   0.447   5.189  0.2924 -2.6119 -1.4139
   47POPC    C3 6200   0.915   0.787   5.233  0.1874  0.7956  0.0599
   47POPC    HX 6201   0.862   0.878   5.267  2.4195  2.0212  0.4909
   47POPC    HY 6202   0.836   0.728   5.183 -0.6216  2.3752 -0.5707
   47POPC   O31 6203   1.006   0.847   5.140 -0.0641 -0.4088  0.1637
   47POPC   C31 6204   1.052   0.759   5.048  0.2614 -0.2822 -0.1067
   47POPC   O32 6205   1.006   0.647   5.029  0.2302  0.3341 -0.1842
   47POPC   C32 6206   1.177   0.805   4.988  1.0067  0.1533  0.7039
   47POPC   H2X 6207   1.259   0.789   5.060 -0.3920 -0.9391  2.1198
   47POPC   H2Y 6208   1.167   0.915   4.971 -0.0124  0.0397  0.4559
   47POPC   C23 6209   1.037   0.279   5.197  0.0499 -0.1699 -0.4123
   47POPC   H3R 6210   0.953   0.240   5.260  0.3631  0.6513  0.5345
   47POPC   H3S 6211   1.117   0.202   5.195  1.4300  1.1553  0.8042
   47POPC   C24 6212   0.977   0.311   5.053  0.1105  0.6518 -0.5056
   47POPC   H4R 6213   0.916   0.404   5.048  0.9265  1.2139 -0.1255
   47POPC   H4S 6214   0.911   0.230   5.016  0.1997  0.8592 -1.1363
   47POPC   C25 6215   1.076   0.335   4.944 -0.1063 -0.2485  0.6944
   47POPC   H5R 6216   1.136   0.427   4.960  1.3620 -1.2609  1.2027
   47POPC   H5S 6217   1.005   0.336   4.859 -1.0187  2.4648  1.3830
   47POPC   C26 6218   1.172   0.214   4.922  0.2983  0.2387 -0.2935
   47POPC   H6R 6219   1.116   0.119   4.914 -1.0897  0.8195  1.7354
   47POPC   H6S 6220   1.242   0.220   5.009 -0.3544  0.3234  0.2342
   47POPC   C27 6221   1.256   0.241   4.801 -0.3351 -0.3989  0.3974
   47POPC   H7R 6222   1.275   0.350   4.809 -2.9403  0.0319  2.2477
   47POPC   H7S 6223   1.188   0.219   4.716 -0.8774 -2.1250  1.2198
   47POPC   C28 6224   1.378   0.157   4.785 -0.1708  0.1655 -0.0080
   47POPC   H8R 6225   1.441   0.172   4.875  0.7334 -3.1556  0.0123
   47POPC   H8S 6226   1.441   0.207   4.709 -0.2472 -0.0153 -0.1911
   47POPC   C29 6227   1.375   0.009   4.751  0.4728  0.0115  0.2014
   47POPC   H91 6228   1.304  -0.054   4.808  0.6171 -1.0299 -0.7440
   47POPC  C210 6229   1.454  -0.053   4.663 -0.3335  0.6093  0.3803
   47POPC  H101 6230   1.453  -0.163   4.660 -0.0425  0.5209 -4.4501
   47POPC  C211 6231   1.572  -0.006   4.574  0.0769 -0.4278 -0.4965
   47POPC  H11R 6232   1.608   0.091   4.614  1.2275 -1.2664  0.5746
   47POPC  H11S 6233   1.545  -0.010   4.466 -0.2270 -1.6582 -0.3925
   47POPC  C212 6234   1.691  -0.102   4.593  0.3573 -0.3208  0.4200
   47POPC  H12R 6235   1.666  -0.196   4.538  0.6088 -0.3725  0.3930
   47POPC  H12S 6236   1.706  -0.122   4.701 -0.3869 -0.7427  0.4572
   47POPC  C213 6237   1.813  -0.039   4.542  0.0020 -0.5205 -0.5605
   47POPC  H13R 6238   1.837   0.060   4.586 -0.2543 -0.0515 -1.4516
   47POPC  H13S 6239   1.809  -0.030   4.431 -3.6240  1.6397 -0.4151
   47POPC  C214 6240   1.930  -0.132   4.581 -0.2127  0.2252  0.0565
   47POPC  H14R 6241   1.928  -0.219   4.512  1.0721  0.1887  0.0441
   47POPC  H14S 6242   1.930  -0.171   4.685 -0.7530  1.0773  0.3939
   47POPC  C215 6243   2.062  -0.061   4.547 -0.3356 -0.5404  0.0928
   47POPC  H15R 6244   2.073   0.022   4.620 -0.4753 -0.5094  0.0795
   47POPC  H15S 6245   2.067  -0.019   4.445  2.6303  0.1764  0.4604
   47POPC  C216 6246   2.183  -0.160   4.569  0.3043  0.3490  0.7950
   47POPC  H16R 6247   2.185  -0.189   4.676  1.0142 -2.1308  0.1613
   47POPC  H16S 6248   2.268  -0.095   4.540  0.7662 -0.7809 -0.4934
   47POPC  C217 6249   2.199  -0.282   4.477 -0.4983 -0.0791 -0.2762
   47POPC  H17R 6250   2.191  -0.252   4.370 -0.0226  0.6770 -0.1065
   47POPC  H17S 6251   2.115  -0.350   4.503 -1.0474 -0.2413 -2.2772
   47POPC  C218 6252   2.329  -0.353   4.505 -0.9750 -0.0566 -0.1147
   47POPC  H18R 6253   2.415  -0.293   4.467 -0.8276  0.4490  0.9754
   47POPC  H18S 6254   2.334  -0.452   4.455  1.9316 -0.3768  0.6179
   47POPC  H18T 6255   2.344  -0.359   4.615  0.1672  1.5334 -0.1368
   47POPC   C33 6256   1.196   0.757   4.840  0.1679  0.7385 -0.1789
   47POPC   H3X 6257   1.108   0.787   4.779  0.5398 -0.1913 -1.2206
   47POPC   H3Y 6258   1.205   0.646   4.842  3.1571  0.8997 -0.0151
   47POPC   C34 6259   1.321   0.819   4.778 -0.1635 -0.1048  0.6836
   47POPC   H4X 6260   1.407   0.813   4.849  0.1338  0.2560  0.3545
   47POPC   H4Y 6261   1.302   0.927   4.763 -1.4880 -0.3092  0.8282
   47POPC   C35 6262   1.349   0.748   4.642 -0.5700  0.2064 -0.2207
   47POPC   H5X 6263   1.259   0.745   4.577 -1.1506 -0.1628  0.5753
   47POPC   H5Y 6264   1.392   0.648   4.666  3.2897  1.5392 -0.8842
   47POPC   C36 6265   1.457   0.817   4.557 -0.2654 -0.0325  0.8118
   47POPC   H6X 6266   1.552   0.801   4.612  0.6393 -0.9229 -0.9179
   47POPC   H6Y 6267   1.431   0.924   4.544 -2.6712 -0.8611 -2.7320
   47POPC   C37 6268   1.466   0.768   4.414  0.2173  0.1299 -0.3879
   47POPC   H7X 6269   1.375   0.780   4.352 -0.9974 -1.4467  1.0179
   47POPC   H7Y 6270   1.480   0.659   4.428  0.2841  0.2554  0.5774
   47POPC   C38 6271   1.592   0.824   4.347 -0.7141 -0.4422  0.1419
   47POPC   H8X 6272   1.680   0.810   4.415 -2.9752 -1.1897  3.1508
   47POPC   H8Y 6273   1.594   0.934   4.333  3.7793 -0.1509  1.4106
   47POPC   C39 6274   1.619   0.763   4.207 -0.3824 -0.2820 -0.4055
   47POPC   H9X 6275   1.626   0.652   4.206 -0.8543 -0.3201  0.0006
   47POPC   H9Y 6276   1.725   0.790   4.188  0.5385 -2.4825  1.1804
   47POPC  C310 6277   1.541   0.825   4.095  0.7067 -0.2964 -1.4351
   47POPC  H10X 6278   1.552   0.935   4.101  0.1741 -0.2708 -0.8232
   47POPC  H10Y 6279   1.435   0.791   4.095  1.3220 -2.3959 -1.0254
   47POPC  C311 6280   1.603   0.769   3.957  0.4145 -0.3017  0.2244
   47POPC  H11X 6281   1.555   0.669   3.953 -2.4044  0.6804  3.9746
   47POPC  H11Y 6282   1.714   0.764   3.970  0.2708 -0.3303  1.6123
   47POPC  C312 6283   1.554   0.852   3.839  0.8650  0.2009 -0.0026
   47POPC  H12X 6284   1.570   0.791   3.748  0.4636 -1.8137  1.2140
   47POPC  H12Y 6285   1.620   0.940   3.827  1.9344 -0.5343  0.3791
   47POPC  C313 6286   1.409   0.886   3.851  0.1853  0.1895  0.5887
   47POPC  H13X 6287   1.394   0.958   3.935 -1.3447  2.1712 -1.2833
   47POPC  H13Y 6288   1.343   0.798   3.867 -0.8203  0.5359 -1.3994
   47POPC  C314 6289   1.344   0.939   3.723 -0.0106  0.0762 -0.6147
   47POPC  H14X 6290   1.358   0.860   3.646  0.4052  0.5890 -1.0771
   47POPC  H14Y 6291   1.400   1.025   3.681 -0.4834  0.4512 -0.4962
   47POPC  C315 6292   1.194   0.970   3.723  0.4646  0.0007 -0.6336
   47POPC  H15X 6293   1.180   1.060   3.785  0.4936 -0.9238  0.7498
   47POPC  H15Y 6294   1.145   0.880   3.766  1.3813  0.9745  2.6874
   47POPC  C316 6295   1.145   1.010   3.587  0.8981  0.4444  0.8687
   47POPC  H16X 6296   1.042   1.052   3.593 -0.2281 -1.7302 -1.5688
   47POPC  H16Y 6297   1.137   0.925   3.516 -1.7254 -0.2509  1.8857
   47POPC  H16Z 6298   1.212   1.079   3.532  1.4979 -1.8206 -1.4347
   48POPC     N 6299   3.979   0.004   6.295  0.8898  0.2216  0.0077
   48POPC   C12 6300   4.094  -0.055   6.374  0.4047  0.2438  0.2652
   48POPC  H12A 6301   4.066  -0.151   6.415 -0.5150  0.8257  1.0324
   48POPC  H12B 6302   4.115   0.002   6.463 -0.1168  0.2151  0.4096
   48POPC   C13 6303   3.929  -0.102   6.198  0.1919 -0.0558  0.2455
   48POPC  H13A 6304   4.005  -0.142   6.134 -1.0437 -2.3004  0.0575
   48POPC  H13B 6305   3.893  -0.182   6.262  0.3960 -1.5306 -1.4081
   48POPC  H13C 6306   3.847  -0.055   6.144  2.3896  1.6279 -1.8241
   48POPC   C14 6307   3.865   0.029   6.382  0.8858  0.2302 -0.5731
   48POPC  H14A 6308   3.772   0.062   6.338  0.2991 -1.4925 -0.7146
   48POPC  H14B 6309   3.830  -0.065   6.422  2.8511  0.0731  0.9629
   48POPC  H14C 6310   3.885   0.084   6.473  3.3106 -0.5158 -0.5811
   48POPC   C15 6311   4.018   0.119   6.216  0.3600 -0.3444 -0.1208
   48POPC  H15A 6312   4.056   0.203   6.272  1.8879 -0.6652 -0.6417
   48POPC  H15B 6313   3.937   0.155   6.154  0.7637  2.0001  0.6246
   48POPC  H15C 6314   4.108   0.110   6.157  0.8440 -0.4216  0.6207
   48POPC   C11 6315   4.220  -0.079   6.287 -0.0177 -0.0882 -0.1623
   48POPC  H11A 6316   4.301  -0.096   6.362 -0.2029  0.4464  0.1617
   48POPC  H11B 6317   4.256   0.013   6.236 -0.7197  0.4897  0.3724
   48POPC     P 6318   4.232  -0.332   6.244  0.1885 -0.1226 -0.0247
   48POPC   O13 6319   4.160  -0.354   6.374  0.3201  0.6376  0.5085
   48POPC   O14 6320   4.377  -0.354   6.249  0.2842 -0.1431 -0.2614
   48POPC   O12 6321   4.207  -0.182   6.186 -0.9315  0.2026 -0.3386
   48POPC   O11 6322   4.154  -0.412   6.134 -0.2567 -0.4407 -0.0191
   48POPC    C1 6323   4.221  -0.467   6.012  0.3186 -1.6384  0.0355
   48POPC    HA 6324   4.193  -0.574   5.998  1.7404 -2.2062  1.2454
   48POPC    HB 6325   4.332  -0.470   6.021  0.3765 -1.3932 -0.5717
   48POPC    C2 6326   4.192  -0.392   5.886 -0.1764 -0.0751 -0.3856
   48POPC    HS 6327   4.210  -0.457   5.798 -2.4821  0.4365 -1.3046
   48POPC   O21 6328   4.264  -0.272   5.881  0.8298 -0.0555  0.1359
   48POPC   C21 6329   4.374  -0.276   5.825 -0.1222 -0.4991  0.2353
   48POPC   O22 6330   4.430  -0.379   5.791  0.1308 -0.2539 -0.4952
   48POPC   C22 6331   4.432  -0.135   5.815 -0.2354 -1.0902  0.1968
   48POPC   H2R 6332   4.488  -0.112   5.908  0.3505 -0.4479 -0.3069
   48POPC   H2S 6333   4.349  -0.062   5.799  1.0082  0.3957  0.2636
   48POPC    C3 6334   4.040  -0.358   5.887 -0.4618  0.3705 -0.3252
   48POPC    HX 6335   4.016  -0.272   5.954 -0.0949 -0.6560  1.1969
   48POPC    HY 6336   3.988  -0.444   5.935 -0.1007 -0.4632 -1.3921
   48POPC   O31 6337   3.995  -0.337   5.758  0.5982 -0.2524  0.6733
   48POPC   C31 6338   3.975  -0.209   5.719 -0.2048  0.5152 -0.1839
   48POPC   O32 6339   3.987  -0.111   5.793  0.1389  0.2616 -0.4847
   48POPC   C32 6340   3.958  -0.201   5.570  0.5434  0.2319 -0.0858
   48POPC   H2X 6341   3.850  -0.210   5.547  0.1151  1.6234  1.2175
   48POPC   H2Y 6342   4.022  -0.286   5.536  0.8506 -0.6461  2.4483
   48POPC   C23 6343   4.531  -0.124   5.699  1.1119  0.7928 -0.2148
   48POPC   H3R 6344   4.605  -0.205   5.713 -0.4046 -0.5997 -0.0765
   48POPC   H3S 6345   4.580  -0.026   5.718 -0.6982  1.8401 -0.7160
   48POPC   C24 6346   4.459  -0.128   5.564 -0.1409  0.2219  0.0654
   48POPC   H4R 6347   4.373  -0.059   5.551  0.5428  0.7815 -1.9449
   48POPC   H4S 6348   4.429  -0.232   5.541  1.1010 -0.1833  0.1710
   48POPC   C25 6349   4.554  -0.096   5.445 -0.0912 -0.1835 -0.7429
   48POPC   H5R 6350   4.513  -0.134   5.349 -2.5300 -1.7246  0.8326
   48POPC   H5S 6351   4.656  -0.138   5.461  1.2508  2.4922 -1.5630
   48POPC   C26 6352   4.568   0.064   5.436  0.5153 -0.5734  0.2809
   48POPC   H6R 6353   4.588   0.102   5.539 -2.4526 -1.9687  1.4768
   48POPC   H6S 6354   4.470   0.108   5.410  0.9010  0.8387  1.1007
   48POPC   C27 6355   4.656   0.118   5.318  0.2825 -0.2735 -0.2216
   48POPC   H7R 6356   4.761   0.099   5.349  0.4821  0.8706 -0.1664
   48POPC   H7S 6357   4.642   0.223   5.285 -1.6217 -0.9754 -1.8557
   48POPC   C28 6358   4.623   0.031   5.190 -0.2777  0.0759 -0.7064
   48POPC   H8R 6359   4.649  -0.071   5.226 -1.2802  0.2772  0.6754
   48POPC   H8S 6360   4.695   0.041   5.106 -0.5764  0.9899 -0.8652
   48POPC   C29 6361   4.482   0.030   5.128  0.3062 -0.5456 -0.4963
   48POPC   H91 6362   4.443   0.130   5.103  0.1925 -0.3450  0.4376
   48POPC  C210 6363   4.400  -0.073   5.102  0.4378 -0.4283 -1.0520
   48POPC  H101 6364   4.301  -0.036   5.070  0.6634  0.2368 -1.0089
   48POPC  C211 6365   4.440  -0.217   5.110 -0.1779 -0.8218  0.7862
   48POPC  H11R 6366   4.348  -0.270   5.146 -0.7648 -0.4768 -0.1620
   48POPC  H11S 6367   4.519  -0.238   5.185  2.0771  0.2402 -1.1877
   48POPC  C212 6368   4.483  -0.258   4.968 -0.5617  0.6389 -0.0782
   48POPC  H12R 6369   4.557  -0.190   4.920  0.1404  1.1167  1.6123
   48POPC  H12S 6370   4.392  -0.249   4.905  1.0204 -0.1438 -2.6320
   48POPC  C213 6371   4.533  -0.407   4.946  0.5005 -0.4253 -0.9313
   48POPC  H13R 6372   4.461  -0.480   4.988  0.9407  0.4532  1.4978
   48POPC  H13S 6373   4.622  -0.421   5.011 -0.2418  1.4375  0.5851
   48POPC  C214 6374   4.567  -0.444   4.800  0.5945 -0.1880  0.4549
   48POPC  H14R 6375   4.481  -0.412   4.737 -1.8136 -0.9881  3.1685
   48POPC  H14S 6376   4.578  -0.554   4.796  0.1523 -0.3803  3.1276
   48POPC  C215 6377   4.689  -0.372   4.739 -0.5840 -0.4609  0.5640
   48POPC  H15R 6378   4.779  -0.377   4.805  0.6249 -1.1317 -1.0745
   48POPC  H15S 6379   4.654  -0.267   4.725  0.0034 -0.1683  1.2158
   48POPC  C216 6380   4.735  -0.421   4.600  0.2665 -0.2864 -0.2314
   48POPC  H16R 6381   4.791  -0.342   4.546 -3.1572  2.5519  0.0260
   48POPC  H16S 6382   4.643  -0.444   4.540  0.9633 -1.5610 -0.8621
   48POPC  C217 6383   4.808  -0.553   4.608  0.1048  0.4074 -0.2415
   48POPC  H17R 6384   4.752  -0.628   4.667  0.5075 -0.1380 -0.5421
   48POPC  H17S 6385   4.895  -0.525   4.671 -0.7025 -0.1773  1.1663
   48POPC  C218 6386   4.858  -0.618   4.473 -0.1590  0.1015  0.7224
   48POPC  H18R 6387   4.889  -0.722   4.496  2.6738  1.3012  3.1176
   48POPC  H18S 6388   4.946  -0.575   4.420 -2.0504  1.5792 -1.4102
   48POPC  H18T 6389   4.778  -0.617   4.396 -2.0567 -0.5366  2.5854
   48POPC   C33 6390   4.013  -0.069   5.511 -1.1443  0.4432  0.3909
   48POPC   H3X 6391   4.114  -0.053   5.555 -0.8835 -2.4065  0.9968
   48POPC   H3Y 6392   3.953   0.019   5.542 -1.1184 -0.1766  2.2863
   48POPC   C34 6393   4.014  -0.079   5.355  0.4159 -0.3857 -0.0206
   48POPC   H4X 6394   3.913  -0.097   5.312 -0.2851 -0.9713  1.7778
   48POPC   H4Y 6395   4.088  -0.159   5.338  2.6192  1.7485 -1.0345
   48POPC   C35 6396   4.070   0.050   5.295 -0.0979 -0.4165 -0.4484
   48POPC   H5X 6397   4.181   0.042   5.288  0.2431  2.3424  0.7882
   48POPC   H5Y 6398   4.033   0.131   5.361  0.7144 -1.3133  1.1734
   48POPC   C36 6399   4.020   0.069   5.153 -0.0055  0.5685  0.3053
   48POPC   H6X 6400   3.910   0.074   5.142  0.1720  1.7348 -1.4221
   48POPC   H6Y 6401   4.049  -0.016   5.088 -1.1283 -0.0396  0.5880
   48POPC   C37 6402   4.074   0.196   5.087 -0.1717 -0.1886 -1.0023
   48POPC   H7X 6403   4.183   0.186   5.070 -0.2373  0.3744 -1.8419
   48POPC   H7Y 6404   4.058   0.281   5.156 -0.3008 -0.5892 -0.5326
   48POPC   C38 6405   4.016   0.231   4.955 -0.4831  0.2092  0.6937
   48POPC   H8X 6406   4.048   0.332   4.919 -0.6979 -0.5130 -1.7089
   48POPC   H8Y 6407   3.907   0.249   4.965 -1.0526 -2.4371  0.0104
   48POPC   C39 6408   4.041   0.125   4.844 -0.3552 -0.3020  0.2255
   48POPC   H9X 6409   3.994   0.030   4.879 -0.0167 -0.6508 -0.2558
   48POPC   H9Y 6410   4.149   0.098   4.844 -0.4119 -0.5289  0.0903
   48POPC  C310 6411   3.982   0.154   4.707 -0.1918  0.0391  0.1150
   48POPC  H10X 6412   3.871   0.163   4.702 -0.0824  1.9238  0.3222
   48POPC  H10Y 6413   4.005   0.070   4.638 -1.9197 -1.0829  0.8251
   48POPC  C311 6414   4.036   0.280   4.645 -0.0250 -0.7239  0.0923
   48POPC  H11X 6415   4.145   0.271   4.626 -0.1078 -0.5092 -0.4768
   48POPC  H11Y 6416   4.032   0.367   4.714 -0.2657 -0.8720  0.2673
   48POPC  C312 6417   3.957   0.321   4.516  0.1093 -0.4008  0.6347
   48POPC  H12X 6418   3.949   0.431   4.506  0.2347 -0.4979 -0.7801
   48POPC  H12Y 6419   3.852   0.286   4.512  0.3135 -1.1069 -3.6230
   48POPC  C313 6420   4.017   0.265   4.386  1.2069 -0.4793 -0.0236
   48POPC  H13X 6421   4.025   0.155   4.404  0.2159 -0.6725 -0.6668
   48POPC  H13Y 6422   4.120   0.306   4.383  0.9197  0.3290  0.6665
   48POPC  C314 6423   3.942   0.306   4.256 -0.3877 -0.2687  0.5558
   48POPC  H14X 6424   3.932   0.416   4.247 -0.6197 -0.3534 -0.2394
   48POPC  H14Y 6425   3.844   0.254   4.256  0.1072 -1.2700  1.9252
   48POPC  C315 6426   4.022   0.258   4.127  0.0796 -0.2822 -0.0614
   48POPC  H15X 6427   4.119   0.312   4.128 -0.4610  0.7273  1.2745
   48POPC  H15Y 6428   3.978   0.294   4.032  0.5372  0.1914 -0.0992
   48POPC  C316 6429   4.042   0.101   4.117 -1.0634 -0.4034 -0.3061
   48POPC  H16X 6430   4.106   0.074   4.203 -0.2403  0.6477 -0.5688
   48POPC  H16Y 6431   4.112   0.083   4.032 -1.3364  1.6606 -1.0316
   48POPC  H16Z 6432   3.950   0.040   4.110 -1.2233 -0.4619  1.8145
   49POPC     N 6433   5.505   6.214   6.238 -0.2630  0.0843  0.3266
   49POPC   C12 6434   5.596   6.231   6.122 -0.8784 -0.3312 -0.7520
   49POPC  H12A 6435   5.691   6.184   6.141 -1.2718 -0.1242  2.1244
   49POPC  H12B 6436   5.620   6.337   6.116  0.0058 -0.5860 -2.3628
   49POPC   C13 6437   5.370   6.261   6.205  0.1144 -0.1720 -0.0875
   49POPC  H13A 6438   5.312   6.260   6.296  0.1612  1.8370  0.0073
   49POPC  H13B 6439   5.377   6.364   6.173 -2.1247 -0.2817 -1.1183
   49POPC  H13C 6440   5.318   6.207   6.127 -0.4255 -1.1249  0.9080
   49POPC   C14 6441   5.490   6.068   6.259 -0.0765  0.3441  0.1100
   49POPC  H14A 6442   5.579   6.023   6.301  0.3734  0.6108 -0.5559
   49POPC  H14B 6443   5.405   6.055   6.325  1.1147 -1.7642  1.3398
   49POPC  H14C 6444   5.473   6.019   6.164 -2.7906 -0.8445  1.1039
   49POPC   C15 6445   5.554   6.276   6.363  0.6760 -0.3139 -0.4433
   49POPC  H15A 6446   5.498   6.244   6.450  1.2139  0.4115  0.1857
   49POPC  H15B 6447   5.536   6.382   6.365  0.7998 -0.3024  0.9029
   49POPC  H15C 6448   5.659   6.256   6.381  0.7792  0.3079 -0.3529
   49POPC   C11 6449   5.556   6.182   5.985  0.0597 -0.3482  0.0005
   49POPC  H11A 6450   5.618   6.229   5.905 -1.6834  1.1261 -0.5500
   49POPC  H11B 6451   5.452   6.211   5.959  0.5734  0.1076 -1.7050
   49POPC     P 6452   5.675   5.954   5.970  0.4102  0.0742 -0.2589
   49POPC   O13 6453   5.626   5.836   6.043  0.1004 -0.7198 -0.2705
   49POPC   O14 6454   5.796   6.016   6.021 -0.7451  0.1121 -0.1185
   49POPC   O12 6455   5.554   6.048   5.981 -0.0361 -1.1992  0.2411
   49POPC   O11 6456   5.685   5.916   5.823  0.0476  0.1494  0.0508
   49POPC    C1 6457   5.591   5.958   5.719 -0.1693 -1.0238 -0.1766
   49POPC    HA 6458   5.642   5.956   5.620  0.7557 -0.5443  0.2691
   49POPC    HB 6459   5.570   6.066   5.737  0.2238 -0.6483 -1.7557
   49POPC    C2 6460   5.469   5.865   5.701 -0.6373 -0.3762  0.2287
   49POPC    HS 6461   5.426   5.851   5.803  1.0955 -1.4264  0.8796
   49POPC   O21 6462   5.518   5.746   5.649  0.1517 -0.5284 -0.4689
   49POPC   C21 6463   5.438   5.641   5.676  0.2666  0.0004  0.3912
   49POPC   O22 6464   5.347   5.637   5.757 -0.5194 -0.3455 -0.7821
   49POPC   C22 6465   5.483   5.525   5.586  0.3505 -0.8609  0.2978
   49POPC   H2R 6466   5.593   5.534   5.579  0.3519 -0.1234  1.1160
   49POPC   H2S 6467   5.426   5.529   5.490 -1.5196 -2.8980  1.2226
   49POPC    C3 6468   5.354   5.913   5.607  0.3393 -1.1865 -0.0717
   49POPC    HX 6469   5.338   6.018   5.638 -1.6931 -1.8569  1.3589
   49POPC    HY 6470   5.259   5.859   5.626 -0.9686  0.8187 -0.6850
   49POPC   O31 6471   5.393   5.908   5.472 -0.3640 -0.4682  0.1821
   49POPC   C31 6472   5.360   5.807   5.394 -0.2624  0.0403 -0.2319
   49POPC   O32 6473   5.279   5.720   5.426  0.5483  0.1608 -0.1466
   49POPC   C32 6474   5.425   5.828   5.259  1.0484 -0.4518  0.2199
   49POPC   H2X 6475   5.534   5.846   5.268  0.7417  0.9760  1.5938
   49POPC   H2Y 6476   5.373   5.916   5.215  0.3165 -0.8785  0.2136
   49POPC   C23 6477   5.459   5.394   5.674  0.6034 -0.6692  0.1403
   49POPC   H3R 6478   5.349   5.378   5.677  0.4071  0.5983  0.3223
   49POPC   H3S 6479   5.495   5.417   5.777  3.2132  1.5445 -1.1449
   49POPC   C24 6480   5.529   5.271   5.619  0.5536 -0.5096 -0.0811
   49POPC   H4R 6481   5.468   5.183   5.649  0.1322 -0.1984 -0.0135
   49POPC   H4S 6482   5.635   5.258   5.647  0.2272 -3.2675  0.2114
   49POPC   C25 6483   5.512   5.252   5.466 -0.1744  0.7796 -0.2246
   49POPC   H5R 6484   5.557   5.154   5.441  0.6429  1.2136 -0.5041
   49POPC   H5S 6485   5.558   5.336   5.409  0.2030 -1.4129 -3.4231
   49POPC   C26 6486   5.364   5.241   5.419  0.2692 -0.3435  1.3408
   49POPC   H6R 6487   5.314   5.338   5.433 -0.1201  0.0047 -1.7633
   49POPC   H6S 6488   5.314   5.166   5.484 -0.6482  0.5450  1.6827
   49POPC   C27 6489   5.348   5.195   5.271  0.2236 -1.0432  0.9771
   49POPC   H7R 6490   5.240   5.179   5.253 -0.5010  3.3651  0.2383
   49POPC   H7S 6491   5.398   5.097   5.259  0.8771 -0.6046 -0.0538
   49POPC   C28 6492   5.405   5.298   5.170  0.1246 -0.2502  0.0139
   49POPC   H8R 6493   5.515   5.299   5.187  0.2192 -0.7124 -0.5253
   49POPC   H8S 6494   5.356   5.397   5.183 -1.4237 -0.7656 -1.5073
   49POPC   C29 6495   5.364   5.264   5.031  0.0216  0.3114  0.1088
   49POPC   H91 6496   5.256   5.251   5.015 -0.0000  0.3846  0.1980
   49POPC  C210 6497   5.445   5.230   4.934  0.2403 -0.6694  0.7280
   49POPC  H101 6498   5.398   5.223   4.834 -1.0782  1.1526  1.1737
   49POPC  C211 6499   5.598   5.231   4.939  0.1322  0.1673  0.7090
   49POPC  H11R 6500   5.636   5.127   4.941  0.2214  0.2044  1.6724
   49POPC  H11S 6501   5.640   5.284   5.028  0.4521  0.3228  0.4649
   49POPC  C212 6502   5.667   5.309   4.821 -0.5951  0.3534 -0.1662
   49POPC  H12R 6503   5.637   5.416   4.826  0.1491  0.5144  2.3386
   49POPC  H12S 6504   5.633   5.258   4.729 -1.7854 -2.2725  1.6190
   49POPC  C213 6505   5.821   5.308   4.824 -0.0788  0.4053  0.1076
   49POPC  H13R 6506   5.853   5.202   4.818 -1.5988 -0.2239  2.1858
   49POPC  H13S 6507   5.849   5.344   4.925  1.5748 -3.6945  1.3191
   49POPC  C214 6508   5.882   5.378   4.702  0.0470 -0.1727 -0.2494
   49POPC  H14R 6509   5.988   5.396   4.730 -0.7436 -0.5065  3.5354
   49POPC  H14S 6510   5.840   5.481   4.701  0.2486 -0.0929 -0.6654
   49POPC  C215 6511   5.873   5.315   4.560 -0.5007  0.4256  0.3178
   49POPC  H15R 6512   5.938   5.381   4.498  1.2081  0.9370  2.5364
   49POPC  H15S 6513   5.769   5.341   4.531 -0.4740  0.2059  0.0160
   49POPC  C216 6514   5.903   5.165   4.561 -0.0499  1.3804 -0.0449
   49POPC  H16R 6515   5.812   5.114   4.599  0.3508 -1.5772 -2.5930
   49POPC  H16S 6516   5.996   5.149   4.620 -1.0720  0.8212  1.4981
   49POPC  C217 6517   5.929   5.106   4.415  0.3287 -0.9173 -0.2292
   49POPC  H17R 6518   5.851   5.150   4.350  0.4913  0.2752  0.3551
   49POPC  H17S 6519   5.914   4.996   4.422 -0.9854 -0.9013 -2.1308
   49POPC  C218 6520   6.070   5.120   4.355  0.3831 -0.4696 -0.6538
   49POPC  H18R 6521   6.139   5.075   4.430  0.0585  1.5935  0.9862
   49POPC  H18S 6522   6.091   5.229   4.350 -0.1708 -0.3993 -1.3851
   49POPC  H18T 6523   6.082   5.071   4.257 -0.8473  1.2599 -1.7184
   49POPC   C33 6524   5.396   5.710   5.159 -0.0624 -0.4729  0.7607
   49POPC   H3X 6525   5.412   5.616   5.216  0.3139  1.6357  4.4156
   49POPC   H3Y 6526   5.469   5.703   5.076 -0.3931 -3.4959  0.5884
   49POPC   C34 6527   5.262   5.724   5.075  0.2245  0.7158 -0.8247
   49POPC   H4X 6528   5.181   5.759   5.143 -2.1104 -3.5729 -1.0452
   49POPC   H4Y 6529   5.213   5.631   5.039 -2.9357  2.0547 -0.3628
   49POPC   C35 6530   5.285   5.820   4.959  0.0367 -0.0230  0.3583
   49POPC   H5X 6531   5.357   5.900   4.987 -0.6884  1.2730 -1.2875
   49POPC   H5Y 6532   5.187   5.854   4.919 -0.6137 -1.6309  0.5038
   49POPC   C36 6533   5.337   5.760   4.820  0.4773  0.4137 -0.8379
   49POPC   H6X 6534   5.433   5.712   4.847 -0.7206 -0.6189  1.9873
   49POPC   H6Y 6535   5.356   5.836   4.741  1.1380 -0.5319 -1.6116
   49POPC   C37 6536   5.246   5.647   4.766  0.0599  0.3136  0.6270
   49POPC   H7X 6537   5.143   5.687   4.762  0.4840  1.5718  1.5283
   49POPC   H7Y 6538   5.252   5.556   4.829  0.7152  0.2279  0.4503
   49POPC   C38 6539   5.277   5.611   4.620  0.0748 -0.0742  0.2697
   49POPC   H8X 6540   5.375   5.559   4.622  0.0434 -0.1172  1.8966
   49POPC   H8Y 6541   5.294   5.708   4.568 -1.4917  1.3325  2.1958
   49POPC   C39 6542   5.178   5.517   4.555  0.6304  0.5024  0.9669
   49POPC   H9X 6543   5.072   5.551   4.563 -0.5600 -2.3874 -0.7367
   49POPC   H9Y 6544   5.168   5.424   4.615 -1.6894  0.4221  0.5752
   49POPC  C310 6545   5.193   5.487   4.409  0.4836 -0.8498  0.1042
   49POPC  H10X 6546   5.286   5.431   4.385  1.8753  2.0251 -1.8448
   49POPC  H10Y 6547   5.202   5.586   4.360  1.5492 -0.0050  1.9365
   49POPC  C311 6548   5.078   5.415   4.339  0.6390  0.2709 -0.1185
   49POPC  H11X 6549   4.990   5.480   4.318  0.8634  0.6194 -0.0078
   49POPC  H11Y 6550   5.036   5.333   4.400  0.2037 -0.1321 -0.9558
   49POPC  C312 6551   5.111   5.357   4.200 -0.3197 -0.4473 -0.5531
   49POPC  H12X 6552   5.195   5.290   4.228  0.3707  1.2408  1.7990
   49POPC  H12Y 6553   5.138   5.443   4.135 -2.3972  0.3896 -0.4057
   49POPC  C313 6554   5.000   5.266   4.147 -0.2241  0.1229  0.2367
   49POPC  H13X 6555   4.898   5.298   4.178  0.2598  1.9475  0.0633
   49POPC  H13Y 6556   5.011   5.165   4.192  1.8253  0.7204  1.1752
   49POPC  C314 6557   5.013   5.248   4.000 -0.6237  0.3587  0.5232
   49POPC  H14X 6558   4.935   5.174   3.973 -1.5657  1.9113 -1.2561
   49POPC  H14Y 6559   5.110   5.206   3.966 -0.7496 -0.5404  1.2634
   49POPC  C315 6560   5.000   5.379   3.925 -0.4133 -0.7793  0.1967
   49POPC  H15X 6561   5.094   5.433   3.946 -1.4444  0.9710  0.4758
   49POPC  H15Y 6562   4.919   5.450   3.954  2.6008  2.6393  0.9196
   49POPC  C316 6563   4.984   5.350   3.771  0.6297 -0.4386  0.2308
   49POPC  H16X 6564   5.071   5.291   3.735 -0.0403 -1.1712 -0.2151
   49POPC  H16Y 6565   4.985   5.445   3.714  1.8783 -0.4696  0.1631
   49POPC  H16Z 6566   4.888   5.299   3.751  0.8697 -0.6625 -0.3726
   50POPC     N 6567   5.822   1.978   6.120  0.5556  0.1694 -0.3150
   50POPC   C12 6568   5.736   1.908   6.018  0.0346 -0.7769  0.6117
   50POPC  H12A 6569   5.687   1.985   5.960  1.4491 -0.9038 -0.8279
   50POPC  H12B 6570   5.661   1.845   6.063 -1.5605 -0.1673 -1.0274
   50POPC   C13 6571   5.740   2.070   6.205 -0.3984 -0.1489 -0.3282
   50POPC  H13A 6572   5.673   2.019   6.272  1.4921  1.0746  2.7026
   50POPC  H13B 6573   5.800   2.117   6.282 -3.8718 -0.1648  2.6363
   50POPC  H13C 6574   5.684   2.142   6.148 -0.6025  0.2712  0.3947
   50POPC   C14 6575   5.890   1.882   6.206  0.8227 -0.0318 -0.3413
   50POPC  H14A 6576   5.810   1.816   6.237  1.8160 -1.2625 -0.2858
   50POPC  H14B 6577   5.958   1.812   6.159  1.6328 -0.3154  1.1803
   50POPC  H14C 6578   5.936   1.925   6.294 -0.8067  1.3892 -0.1247
   50POPC   C15 6579   5.930   2.056   6.050  0.1463  0.4433 -0.6720
   50POPC  H15A 6580   5.991   1.986   5.995 -1.6472 -3.1525  1.4992
   50POPC  H15B 6581   5.985   2.110   6.125 -1.8550 -2.0948  2.9680
   50POPC  H15C 6582   5.892   2.127   5.979  1.1218  2.3554  0.6362
   50POPC   C11 6583   5.804   1.826   5.904 -0.1069  0.7085  0.5596
   50POPC  H11A 6584   5.895   1.876   5.864 -0.7284  1.1778 -0.2959
   50POPC  H11B 6585   5.728   1.809   5.826 -1.0711  0.6732  1.4901
   50POPC     P 6586   5.744   1.583   5.984 -0.0241 -0.5809 -0.0265
   50POPC   O13 6587   5.658   1.624   6.101 -0.2128 -0.4108 -0.3297
   50POPC   O14 6588   5.808   1.449   5.986 -0.6259 -0.4371 -0.1645
   50POPC   O12 6589   5.849   1.700   5.954  0.0258  0.5013  0.5017
   50POPC   O11 6590   5.647   1.594   5.857 -0.5140  0.3249  0.3393
   50POPC    C1 6591   5.654   1.501   5.754  0.0672 -0.6747  0.3367
   50POPC    HA 6592   5.558   1.489   5.699  0.2814 -1.1850  0.0644
   50POPC    HB 6593   5.659   1.394   5.786 -1.6405 -1.2444 -1.1215
   50POPC    C2 6594   5.770   1.528   5.659  0.0746  0.4440 -0.4306
   50POPC    HS 6595   5.864   1.523   5.718  0.8221  0.1169 -1.6024
   50POPC   O21 6596   5.747   1.663   5.607 -0.4391  0.2475  0.2236
   50POPC   C21 6597   5.861   1.725   5.577 -0.0057 -0.0240 -0.0745
   50POPC   O22 6598   5.973   1.681   5.583  0.5738 -0.5294 -0.4974
   50POPC   C22 6599   5.822   1.864   5.526 -0.5217  1.0344  0.7679
   50POPC   H2R 6600   5.884   1.941   5.576  2.6202 -0.6543 -0.2581
   50POPC   H2S 6601   5.713   1.879   5.540 -1.1385 -2.6090  0.9304
   50POPC    C3 6602   5.780   1.428   5.543 -0.1445  0.5800 -0.1447
   50POPC    HX 6603   5.778   1.325   5.586  0.3706  0.8320  0.4889
   50POPC    HY 6604   5.874   1.445   5.487 -0.7030 -0.0488 -1.3199
   50POPC   O31 6605   5.670   1.444   5.448  0.4045  0.3320 -0.3824
   50POPC   C31 6606   5.682   1.359   5.344 -0.3122  0.3058  0.0069
   50POPC   O32 6607   5.775   1.287   5.323 -0.4015 -0.8180  0.0968
   50POPC   C32 6608   5.554   1.368   5.268  0.5302 -0.5965 -0.5125
   50POPC   H2X 6609   5.528   1.475   5.254 -0.0516 -0.5832  0.6267
   50POPC   H2Y 6610   5.472   1.322   5.327  0.9348  2.2718  2.5788
   50POPC   C23 6611   5.856   1.872   5.373 -0.4020  0.3311 -0.5103
   50POPC   H3R 6612   5.961   1.848   5.346 -0.3711  0.3367 -0.3980
   50POPC   H3S 6613   5.826   1.977   5.352 -1.4159  0.3748  0.9269
   50POPC   C24 6614   5.766   1.779   5.289 -0.7259 -0.3555  0.4664
   50POPC   H4R 6615   5.657   1.778   5.308 -0.8473 -1.7810 -0.1806
   50POPC   H4S 6616   5.783   1.676   5.328  1.9332  0.6769  2.3940
   50POPC   C25 6617   5.792   1.780   5.146 -0.0907 -0.0516  0.1005
   50POPC   H5R 6618   5.900   1.757   5.132  0.0077 -0.7443  1.7932
   50POPC   H5S 6619   5.781   1.877   5.094  0.6904  1.5330  2.6966
   50POPC   C26 6620   5.711   1.665   5.079  0.3388 -0.1490 -0.6919
   50POPC   H6R 6621   5.613   1.637   5.123  1.7972  0.0320  3.0313
   50POPC   H6S 6622   5.777   1.581   5.108  3.0455  2.2068  0.4130
   50POPC   C27 6623   5.695   1.683   4.926 -0.1799  0.0727 -0.5596
   50POPC   H7R 6624   5.685   1.580   4.886 -0.8453 -0.1459  0.1327
   50POPC   H7S 6625   5.799   1.712   4.902  0.9298 -3.3745 -0.5070
   50POPC   C28 6626   5.585   1.785   4.880 -0.2284  0.9417 -1.0560
   50POPC   H8R 6627   5.622   1.813   4.779  2.5660 -0.4440 -0.5138
   50POPC   H8S 6628   5.559   1.867   4.950 -1.3089 -1.0461  1.0213
   50POPC   C29 6629   5.451   1.711   4.870 -0.4017  0.4693  0.4378
   50POPC   H91 6630   5.453   1.623   4.935  1.2582  0.0191 -0.1599
   50POPC  C210 6631   5.349   1.730   4.780  0.3022  0.6115 -0.4051
   50POPC  H101 6632   5.258   1.670   4.793  1.4760 -0.6363  3.8704
   50POPC  C211 6633   5.342   1.827   4.668  0.8830  0.7592  0.2690
   50POPC  H11R 6634   5.438   1.881   4.651  0.9777  0.3988 -0.3587
   50POPC  H11S 6635   5.260   1.899   4.689  1.1070  1.5135 -1.3081
   50POPC  C212 6636   5.304   1.749   4.537  0.0476 -0.2792 -0.5774
   50POPC  H12R 6637   5.315   1.823   4.455  0.4241  0.6598  0.2959
   50POPC  H12S 6638   5.206   1.697   4.549 -0.0249 -0.2972 -1.2013
   50POPC  C213 6639   5.400   1.632   4.503 -0.4758 -0.7474  0.4875
   50POPC  H13R 6640   5.388   1.555   4.582  0.2625  1.1823  2.5902
   50POPC  H13S 6641   5.503   1.674   4.509 -0.4255 -0.9433  1.1802
   50POPC  C214 6642   5.370   1.544   4.380 -0.6409  0.1266  0.2173
   50POPC  H14R 6643   5.432   1.453   4.390  0.5631  0.9687  0.6886
   50POPC  H14S 6644   5.420   1.593   4.294  0.5934  1.6487  1.7267
   50POPC  C215 6645   5.225   1.512   4.360 -0.5093 -0.4986  0.9347
   50POPC  H15R 6646   5.155   1.597   4.377 -0.7915 -0.8566  1.6497
   50POPC  H15S 6647   5.192   1.436   4.435 -2.0732 -1.7633 -0.9335
   50POPC  C216 6648   5.203   1.458   4.218 -0.8378  1.0139  0.3539
   50POPC  H16R 6649   5.299   1.406   4.195 -2.7551 -3.0800  0.7082
   50POPC  H16S 6650   5.200   1.538   4.142  0.5244  0.8087  0.0457
   50POPC  C217 6651   5.098   1.348   4.189  0.0225 -0.7513 -0.1906
   50POPC  H17R 6652   5.126   1.254   4.241  1.3770 -2.1345 -3.1769
   50POPC  H17S 6653   5.115   1.327   4.082  1.4686  0.5110 -0.2391
   50POPC  C218 6654   4.955   1.382   4.230  0.1727  0.0371 -0.6045
   50POPC  H18R 6655   4.955   1.403   4.339  1.6338 -0.3556 -0.5126
   50POPC  H18S 6656   4.889   1.296   4.203  1.0805 -0.8421 -0.0752
   50POPC  H18T 6657   4.918   1.475   4.182  0.6588  1.8779  2.2910
   50POPC   C33 6658   5.568   1.311   5.123 -0.4028 -0.4261  0.1434
   50POPC   H3X 6659   5.590   1.203   5.126  1.1041 -0.1143  1.2017
   50POPC   H3Y 6660   5.653   1.354   5.066 -0.0468 -0.2262  0.8211
   50POPC   C34 6661   5.444   1.325   5.044  0.7709 -1.0012  0.3990
   50POPC   H4X 6662   5.420   1.433   5.032  0.6089 -0.8904  1.6511
   50POPC   H4Y 6663   5.364   1.285   5.110  0.1056  1.4969  1.2225
   50POPC   C35 6664   5.459   1.251   4.905 -0.0128 -0.4543 -0.4852
   50POPC   H5X 6665   5.359   1.258   4.856 -1.0809  0.3012  1.6892
   50POPC   H5Y 6666   5.462   1.142   4.927 -2.3177 -0.3313  0.7519
   50POPC   C36 6667   5.566   1.305   4.815 -0.5079  0.5079 -0.4390
   50POPC   H6X 6668   5.671   1.305   4.852 -0.1745  0.5858 -1.3541
   50POPC   H6Y 6669   5.529   1.409   4.801  0.4193  0.9174  0.0411
   50POPC   C37 6670   5.565   1.244   4.671 -0.1773  0.3800  0.4342
   50POPC   H7X 6671   5.474   1.277   4.615 -0.0331 -3.3140 -2.3294
   50POPC   H7Y 6672   5.554   1.135   4.686  1.3776  0.2318  0.6544
   50POPC   C38 6673   5.701   1.288   4.594 -0.6187  0.2906  0.4395
   50POPC   H8X 6674   5.711   1.214   4.511  0.0727  1.2190 -0.3236
   50POPC   H8Y 6675   5.791   1.283   4.658  0.3171 -0.1106 -0.8713
   50POPC   C39 6676   5.697   1.431   4.533  0.1215  0.2007  0.2110
   50POPC   H9X 6677   5.640   1.496   4.602  0.5288  2.5123 -1.5313
   50POPC   H9Y 6678   5.639   1.425   4.439  0.3223  2.7905 -0.1479
   50POPC  C310 6679   5.844   1.475   4.529  0.7286 -0.0505 -0.3956
   50POPC  H10X 6680   5.855   1.560   4.459  0.0720  0.6521  0.3414
   50POPC  H10Y 6681   5.907   1.386   4.506 -0.0753 -1.4076  2.2816
   50POPC  C311 6682   5.895   1.538   4.661 -0.8793  0.4720 -0.8836
   50POPC  H11X 6683   5.891   1.459   4.738 -1.4397 -0.0758 -1.4584
   50POPC  H11Y 6684   5.829   1.623   4.689  1.6608  2.1226  0.4090
   50POPC  C312 6685   6.042   1.582   4.646  0.3501 -0.0050  0.2333
   50POPC  H12X 6686   6.058   1.656   4.565 -0.8127  1.5291  1.3487
   50POPC  H12Y 6687   6.098   1.500   4.597  1.0815 -0.1553  1.2761
   50POPC  C313 6688   6.112   1.633   4.775  0.0918 -0.1518 -0.2202
   50POPC  H13X 6689   6.066   1.727   4.814  3.0993  0.2815  2.7966
   50POPC  H13Y 6690   6.222   1.647   4.768 -0.1976  2.2519 -1.1587
   50POPC  C314 6691   6.094   1.535   4.894  1.4653  0.0674 -0.8665
   50POPC  H14X 6692   6.135   1.437   4.861  0.9141  0.5128 -3.0326
   50POPC  H14Y 6693   5.984   1.524   4.907  1.7647 -1.4877  0.7397
   50POPC  C315 6694   6.161   1.578   5.021 -0.1077 -0.2984  0.2722
   50POPC  H15X 6695   6.136   1.685   5.037  0.8254  0.7295 -3.9647
   50POPC  H15Y 6696   6.271   1.577   5.006 -0.0229  0.4989  0.7708
   50POPC  C316 6697   6.115   1.500   5.147 -0.4484 -0.1277  0.3751
   50POPC  H16X 6698   6.008   1.508   5.172 -1.1992 -1.5069 -2.0793
   50POPC  H16Y 6699   6.181   1.534   5.230 -0.1062  0.9228 -0.3026
   50POPC  H16Z 6700   6.131   1.390   5.144  0.3781 -0.1759  3.2923
   51POPC     N 6701   5.889   3.861   6.157 -0.3820  0.3142  0.1183
   51POPC   C12 6702   5.913   3.981   6.070 -0.0033  0.1297  0.3768
   51POPC  H12A 6703   5.823   4.004   6.015  0.4137  0.3127 -0.2391
   51POPC  H12B 6704   5.999   3.975   6.005 -1.0367  1.0478 -1.1545
   51POPC   C13 6705   6.016   3.823   6.242  0.7849  0.0732  0.0015
   51POPC  H13A 6706   6.043   3.904   6.308  1.2681 -0.9778  1.1384
   51POPC  H13B 6707   5.988   3.736   6.299 -0.4098 -0.4607 -1.3554
   51POPC  H13C 6708   6.097   3.789   6.179 -1.0747 -2.8634 -1.0439
   51POPC   C14 6709   5.772   3.886   6.250 -0.4954 -0.1603 -0.5350
   51POPC  H14A 6710   5.784   3.977   6.307  1.1062 -0.2929 -0.6230
   51POPC  H14B 6711   5.685   3.904   6.189 -0.3495  2.6136 -0.0474
   51POPC  H14C 6712   5.755   3.802   6.317 -1.4530 -0.7047 -1.4419
   51POPC   C15 6713   5.857   3.731   6.082  0.2155 -0.2426 -0.6112
   51POPC  H15A 6714   5.836   3.644   6.142  0.1245 -0.3528 -0.8025
   51POPC  H15B 6715   5.930   3.711   6.005  0.0968 -2.1786 -0.2596
   51POPC  H15C 6716   5.766   3.750   6.027  0.0717  1.9670  0.2867
   51POPC   C11 6717   5.956   4.112   6.143  0.0600  0.2494  0.3171
   51POPC  H11A 6718   6.018   4.084   6.231  1.0634  0.6272 -0.2551
   51POPC  H11B 6719   5.877   4.177   6.185  0.8396  2.0239 -0.8738
   51POPC     P 6720   6.181   4.171   6.040 -0.1082 -0.0187  0.1397
   51POPC   O13 6721   6.224   4.028   6.041  0.1041 -0.0349 -0.2179
   51POPC   O14 6722   6.250   4.265   6.134 -0.0817 -0.1946 -0.1731
   51POPC   O12 6723   6.022   4.199   6.052  0.0387  0.1100  0.0997
   51POPC   O11 6724   6.219   4.216   5.897  0.2365 -0.8728 -0.3933
   51POPC    C1 6725   6.153   4.298   5.798  0.1129 -0.0041  0.0120
   51POPC    HA 6726   6.237   4.326   5.732  0.2004  0.0603  0.1496
   51POPC    HB 6727   6.095   4.388   5.829  0.9589  0.4408  0.3284
   51POPC    C2 6728   6.049   4.217   5.702 -0.0660 -0.3171  0.3022
   51POPC    HS 6729   5.992   4.151   5.770 -0.5808  0.5612  0.7391
   51POPC   O21 6730   6.121   4.141   5.595  0.1273 -0.4761 -0.5164
   51POPC   C21 6731   6.061   4.022   5.564  0.1352 -0.0650 -0.3538
   51POPC   O22 6732   5.964   3.983   5.625 -0.1390 -0.0029 -0.4397
   51POPC   C22 6733   6.153   3.936   5.474 -0.2566 -0.0701 -0.0337
   51POPC   H2R 6734   6.252   3.949   5.522 -0.4544 -2.0501  1.0032
   51POPC   H2S 6735   6.153   3.988   5.375  0.0090  2.7165  1.3243
   51POPC    C3 6736   5.948   4.317   5.626 -0.0239  0.1026  0.7020
   51POPC    HX 6737   5.880   4.365   5.700  1.9778  0.0918  2.6425
   51POPC    HY 6738   5.880   4.259   5.559 -1.1688  1.5690  0.5446
   51POPC   O31 6739   6.028   4.411   5.560  0.4059 -0.2628 -0.8230
   51POPC   C31 6740   6.038   4.393   5.427 -0.5944 -0.0979 -0.1251
   51POPC   O32 6741   5.990   4.300   5.369 -0.1404  0.2304 -0.1304
   51POPC   C32 6742   6.114   4.507   5.369 -0.5258  0.0468 -0.4925
   51POPC   H2X 6743   6.210   4.513   5.425 -0.4732  0.5137 -0.6253
   51POPC   H2Y 6744   6.064   4.605   5.387 -0.5818 -0.0126 -0.3286
   51POPC   C23 6745   6.120   3.789   5.461  0.3136  0.1761  0.1579
   51POPC   H3R 6746   6.011   3.767   5.454  0.0923  1.5492 -1.2167
   51POPC   H3S 6747   6.144   3.742   5.559 -1.3179 -4.1087 -1.2632
   51POPC   C24 6748   6.213   3.714   5.357  0.5592 -0.0679  0.2103
   51POPC   H4R 6749   6.310   3.705   5.409 -0.9237 -0.6882  3.0707
   51POPC   H4S 6750   6.236   3.757   5.257  0.3126 -1.8735 -0.6637
   51POPC   C25 6751   6.171   3.563   5.333 -0.5121  0.6695  0.2073
   51POPC   H5R 6752   6.082   3.560   5.266 -0.5757 -1.6695  0.2947
   51POPC   H5S 6753   6.128   3.531   5.430  0.3394 -0.4340  0.2476
   51POPC   C26 6754   6.284   3.472   5.284  0.2836 -0.1812  0.0134
   51POPC   H6R 6755   6.234   3.376   5.257  2.0843 -1.3430  0.6430
   51POPC   H6S 6756   6.367   3.459   5.357 -1.3219  0.8699  2.1257
   51POPC   C27 6757   6.349   3.521   5.151 -0.2371  1.1252  0.1131
   51POPC   H7R 6758   6.389   3.622   5.173  0.1107  1.4451 -1.7764
   51POPC   H7S 6759   6.275   3.517   5.068 -1.9354  0.3853  1.5928
   51POPC   C28 6760   6.473   3.440   5.113  0.4476  0.4880  0.0079
   51POPC   H8R 6761   6.445   3.333   5.123 -0.4180  0.3090 -3.1987
   51POPC   H8S 6762   6.560   3.463   5.179  0.2041 -0.6147  0.7338
   51POPC   C29 6763   6.506   3.477   4.972  0.2694 -0.3138 -0.6084
   51POPC   H91 6764   6.490   3.583   4.947  1.4378  0.3907  1.4009
   51POPC  C210 6765   6.545   3.401   4.870 -0.4149  0.3501  0.4962
   51POPC  H101 6766   6.560   3.446   4.771 -1.0314  0.5106  0.4725
   51POPC  C211 6767   6.566   3.250   4.866  0.2310 -0.5008  0.3987
   51POPC  H11R 6768   6.529   3.205   4.961 -1.5105 -0.5089 -0.2525
   51POPC  H11S 6769   6.672   3.221   4.847  0.0401  0.5592 -2.7708
   51POPC  C212 6770   6.496   3.173   4.757 -0.1182  0.3572  0.4951
   51POPC  H12R 6771   6.386   3.175   4.763 -0.4018 -0.4510 -2.5652
   51POPC  H12S 6772   6.525   3.066   4.760 -2.5435 -0.4737 -1.8146
   51POPC  C213 6773   6.537   3.207   4.616 -0.7270 -0.3282  0.2762
   51POPC  H13R 6774   6.648   3.210   4.619 -0.6509 -2.1857  3.1379
   51POPC  H13S 6775   6.505   3.312   4.597  1.8121  0.3250 -0.8099
   51POPC  C214 6776   6.495   3.109   4.500 -0.6867  0.3421 -0.4238
   51POPC  H14R 6777   6.526   3.007   4.531 -2.9183  0.0377  1.0520
   51POPC  H14S 6778   6.557   3.141   4.413  1.6704 -2.5864  0.0210
   51POPC  C215 6779   6.342   3.105   4.458 -0.0677 -0.0371 -0.1324
   51POPC  H15R 6780   6.291   3.087   4.555  0.1503 -2.1273 -0.3513
   51POPC  H15S 6781   6.330   3.016   4.393 -0.9734  0.6874 -0.9881
   51POPC  C216 6782   6.299   3.236   4.398 -0.2935  0.1297  0.1750
   51POPC  H16R 6783   6.365   3.265   4.314 -0.6161  1.2513  0.2884
   51POPC  H16S 6784   6.300   3.314   4.478  0.0580  0.1446  0.1543
   51POPC  C217 6785   6.157   3.219   4.328 -0.3081 -0.3304  0.2525
   51POPC  H17R 6786   6.130   3.314   4.276 -0.4568  0.3909  1.6232
   51POPC  H17S 6787   6.082   3.196   4.407  0.0312 -1.5778  0.2338
   51POPC  C218 6788   6.144   3.102   4.227 -0.5654 -0.0480 -0.3121
   51POPC  H18R 6789   6.052   3.124   4.168  0.2429 -0.5090 -1.8091
   51POPC  H18S 6790   6.225   3.099   4.151 -0.6539 -1.9355 -0.3654
   51POPC  H18T 6791   6.142   3.000   4.270 -0.4566  0.5317  1.1247
   51POPC   C33 6792   6.143   4.478   5.215  0.3785  0.8433 -0.1611
   51POPC   H3X 6793   6.166   4.371   5.194  2.3732  1.1800  0.0725
   51POPC   H3Y 6794   6.239   4.530   5.194  1.4454 -1.1285 -0.4104
   51POPC   C34 6795   6.032   4.525   5.122 -0.8567 -0.2773  0.7658
   51POPC   H4X 6796   6.030   4.635   5.140  0.6556 -0.3918  1.7991
   51POPC   H4Y 6797   5.937   4.481   5.161 -1.3781  0.1395 -0.0154
   51POPC   C35 6798   6.060   4.508   4.972 -0.1980 -0.2289  0.2439
   51POPC   H5X 6799   6.158   4.539   4.929 -0.1868 -1.7780 -0.9103
   51POPC   H5Y 6800   5.978   4.567   4.928 -0.4649  1.0223  2.2900
   51POPC   C36 6801   6.035   4.356   4.924 -0.9602 -0.0870  0.0959
   51POPC   H6X 6802   5.943   4.317   4.973 -0.2321 -0.2244  1.4061
   51POPC   H6Y 6803   6.113   4.292   4.970 -1.1955 -0.8187 -0.5136
   51POPC   C37 6804   6.050   4.340   4.768 -0.0085  0.5633 -0.0687
   51POPC   H7X 6805   6.146   4.375   4.723  0.8241 -0.3810  0.9276
   51POPC   H7Y 6806   5.961   4.394   4.728 -0.2326  0.6120  0.4917
   51POPC   C38 6807   6.043   4.187   4.739  0.6394  0.0336  0.2762
   51POPC   H8X 6808   5.941   4.148   4.760  0.5668  0.1691  0.1846
   51POPC   H8Y 6809   6.115   4.123   4.795  0.4777 -1.0641 -0.7446
   51POPC   C39 6810   6.056   4.150   4.591  0.3683  0.0806  0.2544
   51POPC   H9X 6811   6.057   4.041   4.569  0.6221  0.0754  0.2845
   51POPC   H9Y 6812   6.141   4.207   4.548 -0.2312  1.2238  0.5630
   51POPC  C310 6813   5.930   4.208   4.524  0.5422 -0.3010 -0.0618
   51POPC  H10X 6814   5.926   4.317   4.545  3.7475 -0.1618  0.3307
   51POPC  H10Y 6815   5.843   4.161   4.575 -0.4073  1.4373  0.0026
   51POPC  C311 6816   5.925   4.199   4.370  0.1028  0.1636 -0.8966
   51POPC  H11X 6817   5.933   4.089   4.360 -2.2741 -0.4065  1.9682
   51POPC  H11Y 6818   6.007   4.260   4.326  1.2014 -0.3322  0.3720
   51POPC  C312 6819   5.786   4.231   4.315  0.1368  0.1645 -0.3844
   51POPC  H12X 6820   5.760   4.337   4.339  0.0307 -0.5020  3.0224
   51POPC  H12Y 6821   5.726   4.164   4.381  1.4417 -0.8709 -0.2050
   51POPC  C313 6822   5.778   4.194   4.165  1.0398 -0.1352 -0.0669
   51POPC  H13X 6823   5.673   4.171   4.136  1.0864 -1.3705  0.6889
   51POPC  H13Y 6824   5.822   4.092   4.157  1.3835 -0.0956  1.1322
   51POPC  C314 6825   5.826   4.302   4.068 -0.0763 -0.4406 -0.3479
   51POPC  H14X 6826   5.931   4.334   4.085 -0.4696  0.7257 -0.0517
   51POPC  H14Y 6827   5.761   4.391   4.065  1.5744  0.7949 -0.8026
   51POPC  C315 6828   5.813   4.243   3.925 -0.6040  0.6134 -0.3552
   51POPC  H15X 6829   5.705   4.222   3.910 -0.5092 -0.2120  0.0854
   51POPC  H15Y 6830   5.876   4.151   3.920  1.1144  1.6759  0.7144
   51POPC  C316 6831   5.869   4.342   3.814 -0.1306  0.3101 -0.1819
   51POPC  H16X 6832   5.799   4.428   3.808 -1.6050 -0.4488  3.3408
   51POPC  H16Y 6833   5.873   4.283   3.721  0.7265  0.3444 -0.1736
   51POPC  H16Z 6834   5.970   4.379   3.841 -0.0121 -0.4216  0.4153
   52POPC     N 6835   1.103   0.355   5.796 -0.7387 -0.6791  0.1529
   52POPC   C12 6836   1.245   0.394   5.831  0.3217 -0.2419 -0.4208
   52POPC  H12A 6837   1.263   0.496   5.802  0.3145  0.1533  0.9220
   52POPC  H12B 6838   1.311   0.340   5.765  2.3417  1.5368  0.0674
   52POPC   C13 6839   1.085   0.216   5.839 -0.0031  0.3573 -0.0360
   52POPC  H13A 6840   1.153   0.151   5.786  0.1489  0.7697 -0.3434
   52POPC  H13B 6841   1.111   0.196   5.942 -0.0079 -1.0326 -0.2812
   52POPC  H13C 6842   0.981   0.189   5.825  0.1664 -0.9213  0.9653
   52POPC   C14 6843   1.010   0.442   5.872  0.5417  0.5270 -1.3129
   52POPC  H14A 6844   1.037   0.545   5.888  3.1175 -0.3059  0.5104
   52POPC  H14B 6845   0.910   0.436   5.832 -0.7533 -1.5427  1.7958
   52POPC  H14C 6846   0.997   0.399   5.971 -1.2612  1.4464 -1.1056
   52POPC   C15 6847   1.075   0.368   5.653 -0.2440 -0.4715  0.1290
   52POPC  H15A 6848   0.986   0.316   5.621 -0.0504 -1.0705  0.5398
   52POPC  H15B 6849   1.157   0.321   5.600 -0.0120 -1.2621  1.1500
   52POPC  H15C 6850   1.069   0.468   5.614 -0.9772 -1.1166 -1.5495
   52POPC   C11 6851   1.284   0.380   5.981 -0.7802 -0.2989 -0.8043
   52POPC  H11A 6852   1.206   0.423   6.048 -1.2650 -2.0066 -0.2152
   52POPC  H11B 6853   1.371   0.444   6.007 -1.3718 -0.7402  2.7789
   52POPC     P 6854   1.440   0.173   5.997 -0.0255  0.1969 -0.3931
   52POPC   O13 6855   1.398   0.032   5.982 -0.3424 -0.1056  0.3828
   52POPC   O14 6856   1.530   0.206   6.112  0.1254  0.0869 -0.5431
   52POPC   O12 6857   1.298   0.245   6.025 -0.2480  0.2882 -0.1675
   52POPC   O11 6858   1.493   0.238   5.858 -0.1177 -0.1123 -0.4626
   52POPC    C1 6859   1.486   0.173   5.731 -0.5988  0.4548  0.1357
   52POPC    HA 6860   1.473   0.259   5.661 -0.7430  0.3185 -0.0039
   52POPC    HB 6861   1.397   0.108   5.719  0.9487 -1.7094 -0.0949
   52POPC    C2 6862   1.612   0.085   5.703 -0.7493 -0.5149 -0.6127
   52POPC    HS 6863   1.594   0.001   5.774 -2.4578  0.3881  0.0765
   52POPC   O21 6864   1.733   0.153   5.741  0.3578 -0.7103 -0.1681
   52POPC   C21 6865   1.847   0.092   5.745  0.0639  0.1779 -0.7471
   52POPC   O22 6866   1.850  -0.032   5.749  0.7204  0.4314  0.2214
   52POPC   C22 6867   1.968   0.185   5.727  0.8203  0.1317  0.1670
   52POPC   H2R 6868   1.975   0.210   5.835  0.0554 -0.5942  0.4007
   52POPC   H2S 6869   1.940   0.275   5.669  1.7784 -1.2141 -2.5664
   52POPC    C3 6870   1.619   0.026   5.558 -0.0548 -0.1869  0.2566
   52POPC    HX 6871   1.518  -0.020   5.547 -0.0908  0.0348 -0.3763
   52POPC    HY 6872   1.697  -0.052   5.544 -2.5256 -3.2353  2.0174
   52POPC   O31 6873   1.640   0.127   5.460 -0.2876  0.1519  0.2008
   52POPC   C31 6874   1.543   0.188   5.396 -0.2460  0.1484 -0.0878
   52POPC   O32 6875   1.429   0.152   5.399 -0.4792 -0.0359  0.1830
   52POPC   C32 6876   1.589   0.312   5.320 -0.1654  0.1121 -0.1970
   52POPC   H2X 6877   1.602   0.274   5.216 -0.1215  0.9932 -0.5190
   52POPC   H2Y 6878   1.688   0.336   5.366 -1.3045 -0.6741  2.9220
   52POPC   C23 6879   2.095   0.122   5.682  0.6160 -0.4239 -0.6158
   52POPC   H3R 6880   2.106   0.033   5.748 -1.4321  0.0393  0.4348
   52POPC   H3S 6881   2.181   0.192   5.695  0.2469  0.0742 -0.8038
   52POPC   C24 6882   2.109   0.070   5.535  0.6347 -0.2295 -0.4283
   52POPC   H4R 6883   2.204   0.012   5.530 -1.0296 -3.1839 -0.1803
   52POPC   H4S 6884   2.104   0.158   5.467  0.2161  0.1503  0.0877
   52POPC   C25 6885   2.013  -0.046   5.497 -0.1007 -0.5371 -0.1428
   52POPC   H5R 6886   1.912  -0.002   5.486  0.3191  1.3571  2.5269
   52POPC   H5S 6887   2.008  -0.112   5.586 -1.5052 -0.3184 -0.0368
   52POPC   C26 6888   2.064  -0.121   5.379  0.6302 -0.4090 -0.4906
   52POPC   H6R 6889   2.128  -0.068   5.305  1.6621  1.4660  1.6217
   52POPC   H6S 6890   1.972  -0.159   5.329 -0.2251  0.7878  0.1103
   52POPC   C27 6891   2.146  -0.247   5.417  0.5053  0.1686 -0.2859
   52POPC   H7R 6892   2.105  -0.297   5.507 -3.9942  3.5695 -0.1326
   52POPC   H7S 6893   2.243  -0.204   5.450  0.3291  1.8758 -1.8225
   52POPC   C28 6894   2.166  -0.340   5.293 -0.2747  0.0262 -0.0772
   52POPC   H8R 6895   2.208  -0.272   5.216 -1.8219 -0.3713 -1.3324
   52POPC   H8S 6896   2.069  -0.386   5.265 -0.1448 -0.8453  0.8351
   52POPC   C29 6897   2.255  -0.457   5.336  0.0695 -0.2913  0.1615
   52POPC   H91 6898   2.325  -0.432   5.418 -0.6480 -0.5944  0.8892
   52POPC  C210 6899   2.247  -0.585   5.298 -0.2132 -0.1621  0.2154
   52POPC  H101 6900   2.319  -0.659   5.337  0.5760 -0.4741 -1.7369
   52POPC  C211 6901   2.151  -0.644   5.193  0.8321  0.5031  0.6140
   52POPC  H11R 6902   2.200  -0.709   5.118 -1.8872 -1.7292  0.6170
   52POPC  H11S 6903   2.097  -0.563   5.140 -0.7244 -0.5500  0.5150
   52POPC  C212 6904   2.032  -0.719   5.261 -0.0649 -0.8663  0.6379
   52POPC  H12R 6905   2.072  -0.791   5.336  2.0008 -0.0908  0.3366
   52POPC  H12S 6906   1.971  -0.766   5.181 -0.9422  2.0780 -0.5850
   52POPC  C213 6907   1.933  -0.625   5.338  0.0370 -0.2288  0.3048
   52POPC  H13R 6908   1.890  -0.551   5.266 -1.0015 -1.6033 -0.5197
   52POPC  H13S 6909   1.987  -0.566   5.415  2.9074 -3.0349  0.6621
   52POPC  C214 6910   1.803  -0.692   5.399 -0.1695 -0.5234 -0.1484
   52POPC  H14R 6911   1.854  -0.754   5.475  0.8180  0.2128 -0.1910
   52POPC  H14S 6912   1.754  -0.748   5.316 -1.0770 -1.1638  0.8020
   52POPC  C215 6913   1.705  -0.591   5.469 -1.1630 -0.4694 -0.2509
   52POPC  H15R 6914   1.617  -0.655   5.494 -1.8088  0.1857 -0.7836
   52POPC  H15S 6915   1.686  -0.500   5.409  0.2300 -0.6903 -1.0553
   52POPC  C216 6916   1.761  -0.535   5.606 -0.0947 -0.6823  0.1691
   52POPC  H16R 6917   1.834  -0.453   5.594 -1.1907  0.0054 -2.4928
   52POPC  H16S 6918   1.808  -0.625   5.651 -0.8326 -0.5459  1.2526
   52POPC  C217 6919   1.652  -0.492   5.703 -0.2729  0.8483  0.0537
   52POPC  H17R 6920   1.694  -0.492   5.806 -1.5479  0.0823  0.5946
   52POPC  H17S 6921   1.565  -0.561   5.700  1.0830 -0.9381 -0.5443
   52POPC  C218 6922   1.607  -0.345   5.684  0.2547  0.2748  0.2909
   52POPC  H18R 6923   1.557  -0.328   5.586  1.0306 -0.3348 -0.2255
   52POPC  H18S 6924   1.690  -0.273   5.698  1.1091 -0.6339  0.0100
   52POPC  H18T 6925   1.528  -0.323   5.759 -2.1938  0.3419 -2.1245
   52POPC   C33 6926   1.481   0.420   5.321  0.2987  0.2284  0.1092
   52POPC   H3X 6927   1.475   0.476   5.417 -2.2505  0.2522  0.0059
   52POPC   H3Y 6928   1.378   0.379   5.308 -0.6006  1.3235  2.9247
   52POPC   C34 6929   1.506   0.523   5.210  0.3712 -0.0547  0.1974
   52POPC   H4X 6930   1.615   0.542   5.201  0.2740 -0.0852 -1.4842
   52POPC   H4Y 6931   1.456   0.618   5.239  1.0942  0.8018 -1.2280
   52POPC   C35 6932   1.463   0.476   5.070  0.4196 -0.7640  0.3726
   52POPC   H5X 6933   1.352   0.482   5.063  0.5828  0.7435 -4.2523
   52POPC   H5Y 6934   1.503   0.374   5.053  0.8897 -0.8933  2.0731
   52POPC   C36 6935   1.514   0.567   4.954 -0.7808 -0.0481 -0.3055
   52POPC   H6X 6936   1.485   0.674   4.958  2.0107  1.0204 -3.3739
   52POPC   H6Y 6937   1.462   0.535   4.862 -0.2100 -2.4223  0.1402
   52POPC   C37 6938   1.664   0.559   4.927 -0.0305 -0.2202  0.2766
   52POPC   H7X 6939   1.731   0.618   4.993  0.7088  1.6583 -2.0048
   52POPC   H7Y 6940   1.672   0.618   4.833 -0.9504  1.2736  1.0885
   52POPC   C38 6941   1.720   0.416   4.911  0.0727 -0.2621 -0.3635
   52POPC   H8X 6942   1.640   0.347   4.877 -1.7251 -0.0715  3.0212
   52POPC   H8Y 6943   1.753   0.394   5.015 -0.2817 -0.3252 -0.2614
   52POPC   C39 6944   1.846   0.399   4.819  0.0500  0.6091  0.1330
   52POPC   H9X 6945   1.810   0.436   4.721 -0.6071 -0.8175 -0.1928
   52POPC   H9Y 6946   1.864   0.290   4.804 -1.4302  0.4638 -0.7133
   52POPC  C310 6947   1.964   0.484   4.869 -0.5042  0.0450 -0.2193
   52POPC  H10X 6948   1.995   0.436   4.964 -1.0693 -2.4250 -1.2205
   52POPC  H10Y 6949   1.944   0.594   4.869 -0.7617  0.0070  0.7554
   52POPC  C311 6950   2.091   0.452   4.786 -0.7172 -0.3096  0.1238
   52POPC  H11X 6951   2.132   0.349   4.779  3.3275  1.2270 -1.0707
   52POPC  H11Y 6952   2.169   0.505   4.843 -1.2000  0.3872  0.1469
   52POPC  C312 6953   2.078   0.500   4.640  0.1020 -0.0700  0.0208
   52POPC  H12X 6954   2.061   0.609   4.654  1.5591  0.3099 -0.9827
   52POPC  H12Y 6955   1.998   0.449   4.583  1.1325 -0.9231 -0.6976
   52POPC  C313 6956   2.204   0.471   4.554 -0.3766  0.2500 -0.5299
   52POPC  H13X 6957   2.287   0.499   4.623 -0.3527 -1.9678  0.4237
   52POPC  H13Y 6958   2.200   0.543   4.470  0.2022  0.6838 -0.1969
   52POPC  C314 6959   2.205   0.325   4.500  0.0493  0.0431 -0.2725
   52POPC  H14X 6960   2.111   0.318   4.443 -0.3208  2.1357 -0.0172
   52POPC  H14Y 6961   2.207   0.255   4.586  0.5301  0.2951 -0.0682
   52POPC  C315 6962   2.323   0.311   4.409  0.4072 -0.0734 -0.6908
   52POPC  H15X 6963   2.419   0.319   4.465 -1.8488 -0.0333  3.6038
   52POPC  H15Y 6964   2.328   0.400   4.342  0.7414  1.2966  1.0617
   52POPC  C316 6965   2.322   0.179   4.331  0.5136  0.0848  0.3635
   52POPC  H16X 6966   2.370   0.100   4.392 -2.7039 -0.3674  2.5571
   52POPC  H16Y 6967   2.369   0.208   4.235 -1.6807 -0.6152 -0.9713
   52POPC  H16Z 6968   2.218   0.143   4.317  1.0898 -2.0688  1.1860
   53POPC     N 6969   0.801   6.116   6.421  0.5404 -0.3716  0.0197
   53POPC   C12 6970   0.822   6.029   6.298 -0.3325 -0.2645  0.2474
   53POPC  H12A 6971   0.726   6.032   6.248 -1.0738 -1.0725  1.5527
   53POPC  H12B 6972   0.834   5.926   6.327  1.7722  0.4477  2.1428
   53POPC   C13 6973   0.699   6.045   6.502  0.0038 -1.0826  0.3209
   53POPC  H13A 6974   0.675   6.103   6.590 -0.6322 -0.1682 -0.4351
   53POPC  H13B 6975   0.609   6.032   6.444  2.3289  0.1280 -4.0128
   53POPC  H13C 6976   0.732   5.948   6.536  2.3295  0.3781  2.5629
   53POPC   C14 6977   0.923   6.130   6.506  0.3343  0.5664 -0.9306
   53POPC  H14A 6978   1.002   6.175   6.448 -0.5065  3.6589  0.1545
   53POPC  H14B 6979   0.901   6.192   6.592  1.9465 -1.9488  1.4822
   53POPC  H14C 6980   0.956   6.032   6.536  0.9202  1.2023  0.6118
   53POPC   C15 6981   0.755   6.255   6.389 -1.0071  0.3008 -0.0637
   53POPC  H15A 6982   0.718   6.299   6.480 -0.0493 -1.0893  1.0429
   53POPC  H15B 6983   0.682   6.234   6.311  0.1241  1.4102 -1.4705
   53POPC  H15C 6984   0.833   6.311   6.340 -0.5691  0.4673  0.8200
   53POPC   C11 6985   0.934   6.068   6.189  0.4524 -0.4582  0.0934
   53POPC  H11A 6986   0.929   5.983   6.118  0.2021 -1.1709  0.9556
   53POPC  H11B 6987   1.036   6.074   6.233  0.0132  2.5394  0.9014
   53POPC     P 6988   0.811   6.196   5.992  0.1263  0.3535 -0.2298
   53POPC   O13 6989   0.721   6.318   5.999 -0.2053  0.1499  0.1601
   53POPC   O14 6990   0.741   6.064   5.973 -0.0171 -0.3733  0.3156
   53POPC   O12 6991   0.890   6.187   6.129 -0.1774  0.1301  0.6660
   53POPC   O11 6992   0.931   6.225   5.886  0.6091  0.1788 -0.0605
   53POPC    C1 6993   1.041   6.132   5.876 -0.0965 -0.1213 -0.0516
   53POPC    HA 6994   1.047   6.057   5.958  2.1625 -0.6332 -0.6093
   53POPC    HB 6995   1.132   6.196   5.872  0.6883 -1.2680 -2.0664
   53POPC    C2 6996   1.057   6.071   5.736  0.4679  0.5503  0.2674
   53POPC    HS 6997   1.071   6.163   5.675 -0.0618 -1.0418 -2.3855
   53POPC   O21 6998   0.945   5.990   5.701 -0.1277 -0.6843 -0.0056
   53POPC   C21 6999   0.857   6.054   5.620 -0.1784  0.3033 -0.4508
   53POPC   O22 7000   0.858   6.171   5.588 -0.3522 -0.2849  1.0690
   53POPC   C22 7001   0.756   5.952   5.570 -0.1919  0.0832  0.3198
   53POPC   H2R 7002   0.660   5.961   5.624 -1.3566  0.3443 -1.7186
   53POPC   H2S 7003   0.785   5.845   5.580 -1.4178 -0.3253 -0.2980
   53POPC    C3 7004   1.187   5.990   5.732 -0.0738  0.2421 -0.5659
   53POPC    HX 7005   1.174   5.905   5.801 -2.5237  1.3398  0.4390
   53POPC    HY 7006   1.273   6.049   5.771 -0.1627 -0.2219  0.3478
   53POPC   O31 7007   1.210   5.944   5.599 -0.1019  0.9565 -0.4398
   53POPC   C31 7008   1.253   6.047   5.523  0.0944  0.3116 -0.3202
   53POPC   O32 7009   1.265   6.162   5.557 -0.1222 -0.2892 -0.2910
   53POPC   C32 7010   1.288   5.985   5.382 -0.0358  0.1269 -0.5977
   53POPC   H2X 7011   1.194   5.968   5.326 -0.7555  0.2950  0.5314
   53POPC   H2Y 7012   1.344   5.889   5.391 -0.0759  0.2204  1.0670
   53POPC   C23 7013   0.732   5.956   5.419  0.3508 -0.2412 -0.5193
   53POPC   H3R 7014   0.739   6.063   5.389 -2.6938  0.2246  0.0549
   53POPC   H3S 7015   0.631   5.915   5.397  0.8464 -2.2527  0.7212
   53POPC   C24 7016   0.840   5.889   5.336  0.7623 -0.1310 -0.5675
   53POPC   H4R 7017   0.815   5.781   5.347 -0.5837  0.3521  1.6319
   53POPC   H4S 7018   0.938   5.917   5.379 -0.2900  0.4426  1.5950
   53POPC   C25 7019   0.847   5.944   5.193  0.1820 -0.0774  0.0967
   53POPC   H5R 7020   0.758   5.935   5.127  1.7213  1.8514 -2.4054
   53POPC   H5S 7021   0.924   5.873   5.156 -0.7349 -0.6051 -0.8691
   53POPC   C26 7022   0.898   6.089   5.184  0.3255 -0.0062 -0.2431
   53POPC   H6R 7023   0.969   6.105   5.268  0.0811  1.9195 -0.3576
   53POPC   H6S 7024   0.813   6.158   5.201 -0.9438 -1.3166 -1.0130
   53POPC   C27 7025   0.979   6.120   5.061 -0.2164 -1.0030 -0.5932
   53POPC   H7R 7026   1.077   6.068   5.070 -1.1745 -3.1844 -1.8019
   53POPC   H7S 7027   1.002   6.228   5.057  1.4630 -1.3681 -1.3162
   53POPC   C28 7028   0.922   6.089   4.917  0.1549  0.5752  0.0382
   53POPC   H8R 7029   0.831   6.152   4.910 -0.2416 -0.1086 -1.1683
   53POPC   H8S 7030   0.887   5.985   4.898 -2.7511  1.5622 -0.4682
   53POPC   C29 7031   1.009   6.137   4.798 -0.3747  0.3215 -0.2737
   53POPC   H91 7032   0.988   6.243   4.777 -1.0480 -0.2054 -2.5433
   53POPC  C210 7033   1.069   6.066   4.703 -0.1724 -0.5757  0.4277
   53POPC  H101 7034   1.132   6.120   4.630 -0.3536 -0.8070  0.0991
   53POPC  C211 7035   1.065   5.922   4.689 -0.1350 -0.3289 -0.3290
   53POPC  H11R 7036   1.078   5.880   4.587 -0.3652 -1.5818  0.1418
   53POPC  H11S 7037   0.962   5.894   4.721 -0.7956  2.7396  0.6060
   53POPC  C212 7038   1.175   5.861   4.785  0.2911  0.7782  0.1387
   53POPC  H12R 7039   1.176   5.754   4.753  1.0590  1.1934 -1.3242
   53POPC  H12S 7040   1.145   5.882   4.890 -2.1394  1.9418 -0.7050
   53POPC  C213 7041   1.318   5.926   4.759  0.6516 -0.5346 -0.2080
   53POPC  H13R 7042   1.322   6.026   4.806 -0.6149 -0.9821  0.9023
   53POPC  H13S 7043   1.333   5.934   4.649 -0.7595  0.3106 -0.3619
   53POPC  C214 7044   1.429   5.837   4.813  0.1254 -0.2303  0.2480
   53POPC  H14R 7045   1.416   5.733   4.778 -0.1961  0.5940 -2.2978
   53POPC  H14S 7046   1.419   5.846   4.923  1.1283 -1.8517  0.4964
   53POPC  C215 7047   1.571   5.895   4.777  0.3408  0.2720  0.8528
   53POPC  H15R 7048   1.577   6.001   4.809  1.2931  0.3442  0.4722
   53POPC  H15S 7049   1.583   5.887   4.667  0.6620  2.4893  0.6776
   53POPC  C216 7050   1.690   5.828   4.855  0.0487 -0.0787 -1.1615
   53POPC  H16R 7051   1.668   5.721   4.875  2.8296 -1.1632 -3.3613
   53POPC  H16S 7052   1.712   5.888   4.946  1.1086  0.1223 -1.5357
   53POPC  C217 7053   1.818   5.822   4.776 -0.8355 -0.0188  0.2843
   53POPC  H17R 7054   1.849   5.919   4.732  1.7592  0.1259  2.1784
   53POPC  H17S 7055   1.793   5.760   4.687  0.1108  1.8786 -1.3721
   53POPC  C218 7056   1.933   5.758   4.863  0.6992 -0.5465  1.3793
   53POPC  H18R 7057   2.028   5.751   4.805  0.9083  0.6063  1.5574
   53POPC  H18S 7058   1.906   5.656   4.899 -0.3125 -0.5117  0.7419
   53POPC  H18T 7059   1.932   5.823   4.953  0.0442  1.4659 -0.0345
   53POPC   C33 7060   1.370   6.097   5.308  0.0628  0.1865 -0.0669
   53POPC   H3X 7061   1.464   6.118   5.363  0.3353  0.7023 -0.7247
   53POPC   H3Y 7062   1.326   6.198   5.325  1.6564  0.9771 -0.5174
   53POPC   C34 7063   1.400   6.064   5.160 -0.0918 -0.3792 -0.3433
   53POPC   H4X 7064   1.303   6.054   5.107 -0.2834 -0.0892 -0.0536
   53POPC   H4Y 7065   1.460   5.971   5.159  1.2725  0.4739 -0.4111
   53POPC   C35 7066   1.472   6.177   5.078  1.0629  0.1668 -0.1926
   53POPC   H5X 7067   1.409   6.268   5.076 -0.5897 -0.8672  1.4316
   53POPC   H5Y 7068   1.466   6.134   4.976 -4.8835  0.3415 -0.2787
   53POPC   C36 7069   1.611   6.227   5.124 -0.5442  0.0556 -0.0876
   53POPC   H6X 7070   1.641   6.150   5.198 -1.5286  0.8660  1.1948
   53POPC   H6Y 7071   1.587   6.321   5.178 -0.8181  0.7999 -1.4687
   53POPC   C37 7072   1.709   6.248   5.009 -1.1231  0.0267 -0.1031
   53POPC   H7X 7073   1.672   6.320   4.933 -1.1179  0.4761  0.3196
   53POPC   H7Y 7074   1.722   6.150   4.958 -0.2105  0.0745  0.0215
   53POPC   C38 7075   1.855   6.274   5.051 -0.2555 -0.3728 -0.2408
   53POPC   H8X 7076   1.880   6.188   5.118  1.0286 -1.8237 -2.4512
   53POPC   H8Y 7077   1.867   6.371   5.104  0.5776  0.7650 -2.3921
   53POPC   C39 7078   1.957   6.281   4.941 -0.0386 -0.2002 -0.0318
   53POPC   H9X 7079   1.937   6.365   4.871  1.9990 -0.6890 -1.2710
   53POPC   H9Y 7080   1.946   6.193   4.875 -2.4054 -0.9409  1.2411
   53POPC  C310 7081   2.107   6.289   4.989  0.2412 -0.0213 -0.1441
   53POPC  H10X 7082   2.171   6.244   4.910  2.4341 -0.0450  1.5287
   53POPC  H10Y 7083   2.126   6.221   5.076  0.2039 -0.2602 -0.3219
   53POPC  C311 7084   2.166   6.431   5.015  0.0738 -0.7731  0.7453
   53POPC  H11X 7085   2.105   6.474   5.096 -1.8026  1.1994 -1.5487
   53POPC  H11Y 7086   2.136   6.498   4.931  2.2925 -0.8118 -0.1634
   53POPC  C312 7087   2.313   6.432   5.041  0.2188  0.1549  0.4903
   53POPC  H12X 7088   2.349   6.535   5.025 -3.6860  1.5681 -0.5090
   53POPC  H12Y 7089   2.364   6.364   4.969  0.8543  1.4988 -0.3540
   53POPC  C313 7090   2.359   6.399   5.180  0.6082  0.5198  0.1032
   53POPC  H13X 7091   2.336   6.291   5.193  0.4844  0.2818 -1.8055
   53POPC  H13Y 7092   2.304   6.462   5.252  1.2719  1.6589 -0.3709
   53POPC  C314 7093   2.503   6.419   5.203 -0.2109  0.6395 -0.5508
   53POPC  H14X 7094   2.528   6.514   5.254 -0.1865 -0.3749  1.4292
   53POPC  H14Y 7095   2.561   6.419   5.108  0.2905  0.6942 -0.2470
   53POPC  C315 7096   2.578   6.320   5.298 -0.5181 -0.4312 -0.4437
   53POPC  H15X 7097   2.577   6.216   5.257  4.1111 -0.3816 -1.2517
   53POPC  H15Y 7098   2.531   6.327   5.399  0.3522  0.6015 -0.0890
   53POPC  C316 7099   2.725   6.365   5.306  0.1267 -0.7644  0.4486
   53POPC  H16X 7100   2.788   6.282   5.344  3.1549  0.4122 -1.5828
   53POPC  H16Y 7101   2.742   6.459   5.363  1.5745  0.3412 -1.6588
   53POPC  H16Z 7102   2.762   6.373   5.202 -1.3554 -0.8203 -0.1064
   54POPC     N 7103   0.462   0.517   5.929 -0.1363 -0.0712 -0.2899
   54POPC   C12 7104   0.569   0.608   5.862  0.3126 -0.4183  0.0804
   54POPC  H12A 7105   0.513   0.691   5.823  0.6025 -0.1106  0.3182
   54POPC  H12B 7106   0.610   0.557   5.776  1.8614 -2.7080  2.0270
   54POPC   C13 7107   0.364   0.584   6.021  0.8065  0.0065 -0.0558
   54POPC  H13A 7108   0.274   0.528   6.044  0.8567  0.2462  0.7644
   54POPC  H13B 7109   0.412   0.612   6.113 -0.3232  0.3143  0.4591
   54POPC  H13C 7110   0.333   0.677   5.975 -1.6330 -0.4352  0.5302
   54POPC   C14 7111   0.372   0.446   5.826  0.3410 -0.4341  0.0712
   54POPC  H14A 7112   0.319   0.526   5.778  1.8085  1.9120  2.0938
   54POPC  H14B 7113   0.423   0.380   5.757 -1.5804 -1.2614 -0.6263
   54POPC  H14C 7114   0.303   0.387   5.884 -0.4744  1.0757  0.6947
   54POPC   C15 7115   0.535   0.407   5.999  0.4591 -0.0213 -0.2892
   54POPC  H15A 7116   0.465   0.332   6.032  0.5275 -0.4219 -1.0491
   54POPC  H15B 7117   0.590   0.446   6.084  3.1417  0.9049 -2.3116
   54POPC  H15C 7118   0.607   0.357   5.936  2.0591 -1.6402  2.5597
   54POPC   C11 7119   0.677   0.677   5.951  0.6188  0.5088 -0.4954
   54POPC  H11A 7120   0.757   0.728   5.892  1.8873  0.1974  0.9128
   54POPC  H11B 7121   0.718   0.602   6.022 -0.7005  0.0073 -0.2447
   54POPC     P 7122   0.539   0.915   5.973  0.2960  0.4404 -0.1379
   54POPC   O13 7123   0.593   1.035   6.034 -0.6712 -0.3943 -0.1622
   54POPC   O14 7124   0.396   0.891   6.011 -0.0192 -0.2998  0.9526
   54POPC   O12 7125   0.621   0.785   6.023  0.3130  0.3974  0.3022
   54POPC   O11 7126   0.550   0.905   5.816  0.5162 -0.4558  0.1450
   54POPC    C1 7127   0.658   0.953   5.743  0.0968  0.2077  0.1986
   54POPC    HA 7128   0.728   0.868   5.731  0.5113  0.6409 -0.4760
   54POPC    HB 7129   0.709   1.046   5.777 -1.2875  0.6893  1.0497
   54POPC    C2 7130   0.616   1.001   5.597 -0.1303  0.6551  0.3283
   54POPC    HS 7131   0.711   1.041   5.556  0.8005 -1.1085  0.6825
   54POPC   O21 7132   0.517   1.104   5.601 -0.0050  0.1950  0.1936
   54POPC   C21 7133   0.559   1.230   5.630  0.8052  1.0440 -0.4280
   54POPC   O22 7134   0.674   1.256   5.654 -0.3207 -0.9455 -0.2918
   54POPC   C22 7135   0.441   1.326   5.632  0.1694 -0.0903  0.0089
   54POPC   H2R 7136   0.413   1.350   5.737 -0.7745  0.2843 -0.3198
   54POPC   H2S 7137   0.353   1.270   5.592 -0.0778 -1.8670  2.7445
   54POPC    C3 7138   0.574   0.884   5.502 -0.1207 -0.5143  0.7685
   54POPC    HX 7139   0.489   0.830   5.550  0.2177  0.4171  2.5176
   54POPC    HY 7140   0.658   0.812   5.499 -0.4402 -0.9515  1.8561
   54POPC   O31 7141   0.536   0.937   5.368  0.5034 -0.3498  0.5778
   54POPC   C31 7142   0.532   0.843   5.272  0.0108 -0.2651  0.1615
   54POPC   O32 7143   0.582   0.733   5.282 -0.3804 -0.3884  0.7911
   54POPC   C32 7144   0.452   0.896   5.159 -0.5945  0.4258 -0.0354
   54POPC   H2X 7145   0.502   0.986   5.116 -0.5061  0.6074  0.4432
   54POPC   H2Y 7146   0.349   0.920   5.193 -1.3197 -1.6331 -0.6289
   54POPC   C23 7147   0.473   1.458   5.555  0.0247 -0.2387  0.3957
   54POPC   H3R 7148   0.523   1.439   5.457  3.4598  1.3309  1.6754
   54POPC   H3S 7149   0.553   1.503   5.618 -0.7844  0.0148  1.2507
   54POPC   C24 7150   0.354   1.552   5.535  0.3566 -0.0976 -0.4068
   54POPC   H4R 7151   0.397   1.648   5.499  2.5405 -1.4184 -1.5897
   54POPC   H4S 7152   0.310   1.576   5.633 -1.4732  1.3081 -1.5274
   54POPC   C25 7153   0.242   1.507   5.437 -0.0006 -0.2703 -0.1381
   54POPC   H5R 7154   0.169   1.591   5.430  3.2521  2.7826 -0.2410
   54POPC   H5S 7155   0.182   1.422   5.475  1.0366 -2.3767 -2.8561
   54POPC   C26 7156   0.296   1.473   5.301  0.2707 -0.0923 -0.4898
   54POPC   H6R 7157   0.379   1.400   5.312  0.7022  0.4566 -0.0836
   54POPC   H6S 7158   0.328   1.570   5.258  0.8944  0.2353  0.6626
   54POPC   C27 7159   0.184   1.395   5.230  0.0156 -0.5489  0.2209
   54POPC   H7R 7160   0.105   1.469   5.202  2.1270  1.3612 -0.9813
   54POPC   H7S 7161   0.139   1.317   5.296 -3.1488  0.1827 -0.9042
   54POPC   C28 7162   0.222   1.327   5.091 -0.2693 -0.5318  0.0037
   54POPC   H8R 7163   0.305   1.259   5.119  0.6777 -0.0666 -1.5504
   54POPC   H8S 7164   0.258   1.404   5.020 -0.7295  0.1027  0.4435
   54POPC   C29 7165   0.105   1.262   5.019 -0.1027 -0.6613 -0.3625
   54POPC   H91 7166   0.007   1.289   5.062  0.1457 -0.0228 -0.1865
   54POPC  C210 7167   0.104   1.153   4.944 -0.2690  0.1216 -0.4122
   54POPC  H101 7168   0.004   1.120   4.913 -0.2927  1.3063 -1.6373
   54POPC  C211 7169   0.225   1.086   4.896  0.2157 -0.3084 -0.2343
   54POPC  H11R 7170   0.201   0.978   4.887 -2.1617  0.2624 -1.3777
   54POPC  H11S 7171   0.305   1.120   4.966 -1.0785  2.2165  0.1660
   54POPC  C212 7172   0.274   1.133   4.756 -0.1580 -0.3300  0.8597
   54POPC  H12R 7173   0.309   1.236   4.774 -1.9313  0.8160 -1.7609
   54POPC  H12S 7174   0.195   1.133   4.679  0.4272 -0.1628  0.2565
   54POPC  C213 7175   0.387   1.042   4.712  0.2900 -0.3231  0.0160
   54POPC  H13R 7176   0.340   0.942   4.697 -0.2619 -0.0553 -0.0368
   54POPC  H13S 7177   0.465   1.021   4.789 -1.3454 -0.7707  1.6202
   54POPC  C214 7178   0.447   1.078   4.575 -0.3058 -0.6761 -0.5058
   54POPC  H14R 7179   0.486   1.181   4.580 -0.7820 -0.5352  0.3710
   54POPC  H14S 7180   0.362   1.086   4.504  0.1525  2.5637 -0.8146
   54POPC  C215 7181   0.561   0.982   4.529 -0.4720  0.3100 -0.2879
   54POPC  H15R 7182   0.518   0.880   4.520  0.9653 -0.2013 -1.8289
   54POPC  H15S 7183   0.631   0.965   4.613 -1.2267 -0.1220  0.2720
   54POPC  C216 7184   0.614   1.027   4.392  0.5218 -0.2463  0.0891
   54POPC  H16R 7185   0.652   1.130   4.407 -0.1391  0.5057 -2.8063
   54POPC  H16S 7186   0.527   1.045   4.325  0.0465  2.1354  1.2340
   54POPC  C217 7187   0.709   0.930   4.335 -0.3747  1.0314  0.4774
   54POPC  H17R 7188   0.783   0.895   4.410 -2.2751  0.9029  2.4107
   54POPC  H17S 7189   0.761   0.982   4.252 -2.8256 -0.9581 -2.5297
   54POPC  C218 7190   0.648   0.798   4.278  0.7650  0.4964 -0.0707
   54POPC  H18R 7191   0.723   0.718   4.261  0.9727  0.1021  2.3284
   54POPC  H18S 7192   0.593   0.833   4.188 -0.8133 -1.1655  0.2036
   54POPC  H18T 7193   0.572   0.751   4.344  0.2895 -2.5120 -2.5701
   54POPC   C33 7194   0.435   0.795   5.039  0.4401  0.3388 -0.2558
   54POPC   H3X 7195   0.343   0.818   4.981 -1.5632 -2.5134  1.5002
   54POPC   H3Y 7196   0.412   0.692   5.075 -1.0214  0.4357 -0.8534
   54POPC   C34 7197   0.566   0.795   4.961  0.9238 -1.5979 -0.3717
   54POPC   H4X 7198   0.642   0.744   5.024  1.2384 -1.8019 -0.9150
   54POPC   H4Y 7199   0.592   0.902   4.950  2.8703 -1.9613  0.3842
   54POPC   C35 7200   0.562   0.715   4.831  0.4383  0.3120  0.3394
   54POPC   H5X 7201   0.473   0.744   4.772 -0.0751 -1.9806 -0.0744
   54POPC   H5Y 7202   0.553   0.608   4.857 -1.2367  0.2926 -0.2004
   54POPC   C36 7203   0.685   0.730   4.742 -0.1338 -0.6179 -0.5212
   54POPC   H6X 7204   0.739   0.826   4.749 -0.4179 -0.3321 -2.0482
   54POPC   H6Y 7205   0.660   0.719   4.635 -0.2377  0.6135 -0.6341
   54POPC   C37 7206   0.777   0.606   4.782  0.5277 -0.1119 -0.2290
   54POPC   H7X 7207   0.732   0.506   4.794 -1.0423  0.6417  0.4194
   54POPC   H7Y 7208   0.811   0.633   4.884  0.0621 -0.3561 -0.0046
   54POPC   C38 7209   0.904   0.610   4.697 -0.2044 -0.4556  0.3088
   54POPC   H8X 7210   0.978   0.555   4.759  0.4638  3.2503  3.1085
   54POPC   H8Y 7211   0.940   0.715   4.697 -0.4445 -0.3656  0.9684
   54POPC   C39 7212   0.878   0.538   4.561 -1.0153  0.3668 -0.0096
   54POPC   H9X 7213   0.777   0.567   4.525 -0.5016  1.6317 -0.4777
   54POPC   H9Y 7214   0.856   0.431   4.581 -0.7478  0.1828 -0.6886
   54POPC  C310 7215   0.981   0.549   4.451 -0.1444  0.0076  0.2080
   54POPC  H10X 7216   1.016   0.653   4.436 -0.3941 -0.1333 -1.5687
   54POPC  H10Y 7217   0.949   0.514   4.350  2.6351 -0.0299 -0.7511
   54POPC  C311 7218   1.107   0.459   4.487 -0.2188 -0.4544  0.1375
   54POPC  H11X 7219   1.078   0.353   4.502  0.4605 -0.4654  1.4832
   54POPC  H11Y 7220   1.139   0.490   4.588  3.4422 -1.4454 -0.5647
   54POPC  C312 7221   1.226   0.477   4.390  0.6754  0.5955 -0.1760
   54POPC  H12X 7222   1.260   0.582   4.401  2.1731  0.1021  0.1317
   54POPC  H12Y 7223   1.197   0.454   4.285  2.1484 -0.7193 -0.3357
   54POPC  C313 7224   1.350   0.403   4.433 -0.3701 -0.0207 -0.0753
   54POPC  H13X 7225   1.318   0.301   4.466  1.1133 -1.2129 -2.0570
   54POPC  H13Y 7226   1.392   0.462   4.517 -1.8328  0.4752  0.3384
   54POPC  C314 7227   1.444   0.387   4.319 -0.4663  0.0613  0.7230
   54POPC  H14X 7228   1.492   0.486   4.307  1.4952 -0.8616  0.5068
   54POPC  H14Y 7229   1.396   0.356   4.224 -0.0774  1.6906 -0.0408
   54POPC  C315 7230   1.562   0.296   4.349  0.2403  0.1071  0.0112
   54POPC  H15X 7231   1.621   0.273   4.258 -2.1967  1.6242 -2.1102
   54POPC  H15Y 7232   1.522   0.202   4.392 -0.5646  0.8415  0.9163
   54POPC  C316 7233   1.666   0.354   4.446 -0.1559 -0.2612  0.1747
   54POPC  H16X 7234   1.722   0.431   4.388 -0.6627 -0.5120 -0.6803
   54POPC  H16Y 7235   1.724   0.264   4.474 -1.7279 -1.2476  0.4130
   54POPC  H16Z 7236   1.618   0.397   4.536  0.6560  0.9672  0.0450
   55POPC     N 7237   6.189   5.256   5.891  0.0086  0.4023 -0.6550
   55POPC   C12 7238   6.153   5.108   5.885  0.0538 -0.1453  0.3447
   55POPC  H12A 7239   6.180   5.071   5.787 -3.5565  0.3069 -0.9666
   55POPC  H12B 7240   6.047   5.087   5.894 -0.0079  0.6750  1.8737
   55POPC   C13 7241   6.131   5.331   6.003  0.3458 -0.0290 -0.5179
   55POPC  H13A 7242   6.165   5.296   6.099 -2.4115  0.6500  0.8060
   55POPC  H13B 7243   6.161   5.435   6.001  0.4618  0.0071  1.3546
   55POPC  H13C 7244   6.024   5.320   5.995  0.4349 -2.6054  0.7754
   55POPC   C14 7245   6.334   5.269   5.900 -0.0662 -0.7477 -0.4148
   55POPC  H14A 7246   6.364   5.373   5.907 -1.1119 -0.4899  0.6508
   55POPC  H14B 7247   6.377   5.213   5.981  0.3756  0.1460 -0.0119
   55POPC  H14C 7248   6.380   5.225   5.813 -1.2830 -0.8097 -1.0521
   55POPC   C15 7249   6.148   5.316   5.764  0.4463  0.4269 -0.1312
   55POPC  H15A 7250   6.041   5.307   5.748  0.5591 -0.9333 -0.2367
   55POPC  H15B 7251   6.203   5.275   5.681  0.8579  2.4714 -0.9303
   55POPC  H15C 7252   6.168   5.422   5.765 -0.8418  0.6834  0.1306
   55POPC   C11 7253   6.205   5.014   5.994 -0.0122  0.1519 -0.0430
   55POPC  H11A 7254   6.158   5.035   6.093  0.2615 -1.3725  0.4312
   55POPC  H11B 7255   6.316   5.017   6.003 -0.0038 -1.9151  1.1565
   55POPC     P 7256   6.030   4.811   5.995  0.5491  0.2418  0.0489
   55POPC   O13 7257   5.946   4.906   6.070  0.0938  0.6278  0.2851
   55POPC   O14 7258   6.076   4.683   6.063 -0.1358 -0.3019  0.5788
   55POPC   O12 7259   6.158   4.891   5.944 -0.5217  0.3132 -0.2426
   55POPC   O11 7260   5.954   4.764   5.861  0.5483  0.1907  0.1707
   55POPC    C1 7261   6.020   4.704   5.749  0.4737 -0.3846  0.4554
   55POPC    HA 7262   5.943   4.631   5.715  0.1258 -1.8566  3.9643
   55POPC    HB 7263   6.105   4.641   5.781  0.6474 -0.3230  0.1263
   55POPC    C2 7264   6.055   4.805   5.634 -0.6049  0.4569  0.0583
   55POPC    HS 7265   6.065   4.752   5.537 -0.5181 -0.3344  0.4906
   55POPC   O21 7266   6.179   4.868   5.662 -0.6201  0.5341 -0.2517
   55POPC   C21 7267   6.293   4.802   5.639 -0.2911 -0.2363 -0.6631
   55POPC   O22 7268   6.302   4.687   5.606 -0.1568  0.4161  0.6632
   55POPC   C22 7269   6.402   4.899   5.678  0.1458 -0.5149  0.1072
   55POPC   H2R 7270   6.430   4.873   5.783 -0.6382 -3.0203 -0.2369
   55POPC   H2S 7271   6.372   5.005   5.670  1.0456 -0.1689  1.0631
   55POPC    C3 7272   5.931   4.901   5.618  0.3702  0.6206 -0.1785
   55POPC    HX 7273   5.911   4.976   5.697 -0.0869  1.1895 -0.8235
   55POPC    HY 7274   5.840   4.840   5.638  0.8781  0.9372  4.1916
   55POPC   O31 7275   5.940   4.955   5.480 -0.0972  0.2464 -0.3219
   55POPC   C31 7276   5.972   5.083   5.466  0.7334  0.6233  0.2397
   55POPC   O32 7277   6.030   5.154   5.547  0.3201  0.1880  0.2212
   55POPC   C32 7278   5.924   5.122   5.324 -0.6541 -0.6899 -0.2121
   55POPC   H2X 7279   5.830   5.180   5.333 -0.7317 -0.9076  0.5045
   55POPC   H2Y 7280   5.905   5.026   5.271 -0.6513 -0.9027  0.1703
   55POPC   C23 7281   6.522   4.884   5.582 -0.3623  0.3805 -0.1461
   55POPC   H3R 7282   6.548   4.778   5.565 -0.5556  0.5651 -1.7878
   55POPC   H3S 7283   6.612   4.930   5.628  0.6348 -0.7022 -0.9621
   55POPC   C24 7284   6.507   4.943   5.443 -0.2663 -0.5049 -0.4089
   55POPC   H4R 7285   6.524   5.053   5.447 -1.3251 -0.2855 -1.4935
   55POPC   H4S 7286   6.405   4.931   5.402  0.5645  0.7046 -2.9934
   55POPC   C25 7287   6.614   4.878   5.347 -1.1386  0.3418 -0.0284
   55POPC   H5R 7288   6.589   4.770   5.345  0.2495  0.0104 -0.3774
   55POPC   H5S 7289   6.718   4.879   5.384 -0.0534 -2.0659 -2.6949
   55POPC   C26 7290   6.625   4.936   5.199  0.0449  0.1900 -0.5841
   55POPC   H6R 7291   6.628   5.045   5.220  1.4403 -0.1211  1.0322
   55POPC   H6S 7292   6.530   4.926   5.143 -0.6100 -0.3678  0.5942
   55POPC   C27 7293   6.752   4.901   5.121 -0.3371 -0.1834  0.0009
   55POPC   H7R 7294   6.840   4.922   5.185  0.2841 -1.8214 -0.2591
   55POPC   H7S 7295   6.756   4.974   5.037 -0.2820 -0.0049  0.1585
   55POPC   C28 7296   6.764   4.757   5.059 -0.3547 -0.0632  0.0852
   55POPC   H8R 7297   6.723   4.686   5.134  0.1529 -1.9433 -1.3263
   55POPC   H8S 7298   6.870   4.743   5.029 -0.0653  1.4727  0.3344
   55POPC   C29 7299   6.680   4.753   4.936  0.0277 -0.1270 -0.0161
   55POPC   H91 7300   6.726   4.816   4.858 -0.0491  1.4579  1.1502
   55POPC  C210 7301   6.576   4.677   4.906 -0.3801 -0.2388  0.3083
   55POPC  H101 7302   6.533   4.690   4.806  4.3001  1.2946 -1.8106
   55POPC  C211 7303   6.508   4.576   4.998 -0.6030 -1.0546  0.3394
   55POPC  H11R 7304   6.425   4.640   5.035  0.9368  2.8014 -2.2591
   55POPC  H11S 7305   6.566   4.540   5.085  1.0182  0.5749 -0.0165
   55POPC  C212 7306   6.472   4.459   4.905 -0.4101  0.5677  0.0003
   55POPC  H12R 7307   6.406   4.486   4.820  1.4349  1.9558 -1.0406
   55POPC  H12S 7308   6.397   4.393   4.956 -0.7962  0.9168 -0.1109
   55POPC  C213 7309   6.593   4.372   4.858  0.2317 -0.0527 -0.4141
   55POPC  H13R 7310   6.651   4.330   4.942 -0.4183  1.9000  1.0821
   55POPC  H13S 7311   6.665   4.427   4.794  0.4976 -0.7956 -0.7743
   55POPC  C214 7312   6.551   4.248   4.779  0.5719 -0.0346 -0.1191
   55POPC  H14R 7313   6.490   4.182   4.845 -0.8673  1.1933 -0.1720
   55POPC  H14S 7314   6.638   4.189   4.743  2.0129  2.3155 -0.6945
   55POPC  C215 7315   6.456   4.269   4.662  0.0359 -0.9744 -0.2219
   55POPC  H15R 7316   6.360   4.315   4.695  0.8141 -0.0392  0.8316
   55POPC  H15S 7317   6.427   4.172   4.617 -0.8782 -1.5759  1.5485
   55POPC  C216 7318   6.509   4.347   4.543  0.1685 -0.2203  0.1313
   55POPC  H16R 7319   6.604   4.299   4.512  0.3462  2.1535 -3.5569
   55POPC  H16S 7320   6.533   4.451   4.575  1.8126 -1.3963  3.1525
   55POPC  C217 7321   6.414   4.353   4.428  0.8488  0.6148 -0.2370
   55POPC  H17R 7322   6.446   4.431   4.355  0.1326  1.5737  0.4387
   55POPC  H17S 7323   6.316   4.384   4.469  1.0865  0.8279  0.1864
   55POPC  C218 7324   6.402   4.228   4.350 -0.4122  0.1170  0.3669
   55POPC  H18R 7325   6.390   4.136   4.411 -0.8132  0.1867  0.3950
   55POPC  H18S 7326   6.494   4.227   4.288  0.5443 -2.8742  1.6611
   55POPC  H18T 7327   6.322   4.249   4.276 -0.0231  0.4519  0.0356
   55POPC   C33 7328   6.036   5.202   5.252  0.1473 -0.4123 -0.0527
   55POPC   H3X 7329   6.060   5.297   5.303 -1.2230 -0.1834  0.2084
   55POPC   H3Y 7330   5.997   5.237   5.154 -2.9182  1.1278  1.5360
   55POPC   C34 7331   6.170   5.121   5.232 -0.0994 -0.1988  0.5501
   55POPC   H4X 7332   6.219   5.099   5.329  1.5338 -0.4455 -0.2910
   55POPC   H4Y 7333   6.242   5.189   5.181 -1.6599  1.3150  0.2546
   55POPC   C35 7334   6.147   4.991   5.161 -1.0426 -0.0705 -0.3040
   55POPC   H5X 7335   6.061   4.930   5.198 -3.1034  1.2360 -2.5937
   55POPC   H5Y 7336   6.237   4.926   5.173 -0.7180  0.2754 -0.8469
   55POPC   C36 7337   6.119   5.008   5.014 -0.2550 -0.3889  0.4104
   55POPC   H6X 7338   6.190   5.078   4.966 -2.1590  0.4395 -1.3332
   55POPC   H6Y 7339   6.029   5.069   4.992 -1.1949 -1.5959  0.7920
   55POPC   C37 7340   6.126   4.880   4.933 -0.0736  0.7452 -0.4530
   55POPC   H7X 7341   6.036   4.823   4.965  0.0035  0.0823 -1.3557
   55POPC   H7Y 7342   6.213   4.820   4.967 -0.0476  1.0350 -0.0087
   55POPC   C38 7343   6.093   4.903   4.780 -0.2369 -0.1527 -0.3685
   55POPC   H8X 7344   6.181   4.954   4.736 -0.0656  1.1539  1.3469
   55POPC   H8Y 7345   6.009   4.975   4.788 -0.3625 -0.4767  2.1015
   55POPC   C39 7346   6.062   4.776   4.706 -0.1191  0.3723 -0.0423
   55POPC   H9X 7347   5.991   4.712   4.763 -0.9821  1.2643 -0.0695
   55POPC   H9Y 7348   6.157   4.722   4.689 -2.0139 -2.2816 -3.1909
   55POPC  C310 7349   6.011   4.792   4.563 -0.4410  0.1745  0.1881
   55POPC  H10X 7350   6.074   4.870   4.515  1.6890 -1.3884  0.2871
   55POPC  H10Y 7351   5.901   4.799   4.554 -0.3723 -0.4871 -1.6227
   55POPC  C311 7352   6.037   4.660   4.485  0.4370  0.3087  0.1063
   55POPC  H11X 7353   5.984   4.576   4.535  0.1791  0.0680 -0.5522
   55POPC  H11Y 7354   6.141   4.625   4.500  0.6042  1.0107  0.5947
   55POPC  C312 7355   6.005   4.671   4.334 -0.1033  0.2344 -0.5565
   55POPC  H12X 7356   6.020   4.570   4.290  0.4586 -0.4302  1.0691
   55POPC  H12Y 7357   6.072   4.747   4.291 -0.3230  1.4717  1.1832
   55POPC  C313 7358   5.862   4.709   4.297 -0.3357 -0.1879 -0.3344
   55POPC  H13X 7359   5.845   4.808   4.344 -0.9777  0.1878 -1.3380
   55POPC  H13Y 7360   5.786   4.637   4.335  1.1778 -1.2013  0.9013
   55POPC  C314 7361   5.829   4.728   4.145 -0.2517  0.3345 -0.2128
   55POPC  H14X 7362   5.728   4.771   4.135  0.0757  0.6091 -3.4442
   55POPC  H14Y 7363   5.823   4.628   4.095  0.8790  0.1624 -0.0369
   55POPC  C315 7364   5.929   4.813   4.061  0.3554 -0.0370 -0.2213
   55POPC  H15X 7365   6.027   4.769   4.088 -1.0254 -3.1486  0.2788
   55POPC  H15Y 7366   5.927   4.913   4.108  0.2593  0.1585 -0.6386
   55POPC  C316 7367   5.883   4.816   3.915 -0.4099 -0.5036 -0.6787
   55POPC  H16X 7368   5.867   4.713   3.875 -1.5712 -0.1834 -1.0825
   55POPC  H16Y 7369   5.951   4.871   3.846 -1.9628  1.2909 -0.8571
   55POPC  H16Z 7370   5.787   4.871   3.919  0.2869  0.7027 -0.1681
   56POPC     N 7371   5.834   0.705   6.208  0.1425  0.5753  0.5600
   56POPC   C12 7372   5.700   0.637   6.154 -0.0899  0.1683 -0.0705
   56POPC  H12A 7373   5.717   0.580   6.064 -0.1207 -0.3243  0.2364
   56POPC  H12B 7374   5.630   0.716   6.131 -0.6352 -0.5691 -0.9772
   56POPC   C13 7375   5.875   0.799   6.097 -0.0750 -0.2429 -0.2076
   56POPC  H13A 7376   5.937   0.877   6.139 -2.0593  0.9538  0.6626
   56POPC  H13B 7377   5.923   0.742   6.019  1.3609  0.5457  0.0625
   56POPC  H13C 7378   5.796   0.858   6.052 -0.7738  0.6070  2.0020
   56POPC   C14 7379   5.801   0.792   6.320  0.5931 -0.0969 -0.0333
   56POPC  H14A 7380   5.880   0.853   6.361  0.1602 -0.5949  1.6374
   56POPC  H14B 7381   5.718   0.858   6.299  0.1254 -0.6578  0.0309
   56POPC  H14C 7382   5.761   0.729   6.398  0.2615  0.4567  0.2525
   56POPC   C15 7383   5.944   0.608   6.238 -0.5643 -0.2696 -0.4284
   56POPC  H15A 7384   5.981   0.563   6.148 -0.6497  0.2880 -0.7446
   56POPC  H15B 7385   5.890   0.532   6.293 -0.1294 -0.3016 -0.0374
   56POPC  H15C 7386   6.019   0.659   6.296 -0.8053  0.2152 -0.5405
   56POPC   C11 7387   5.627   0.536   6.242 -0.6883 -0.4153  0.2969
   56POPC  H11A 7388   5.524   0.520   6.204 -0.6496 -0.6993  0.3160
   56POPC  H11B 7389   5.618   0.572   6.346  1.6998 -1.2300  0.8518
   56POPC     P 7390   5.728   0.320   6.134  0.2640 -0.2059  0.3689
   56POPC   O13 7391   5.640   0.206   6.170  0.1477  0.3987  0.0142
   56POPC   O14 7392   5.872   0.289   6.116 -0.0388 -0.0132 -0.1644
   56POPC   O12 7393   5.713   0.425   6.248  0.0648  0.6153  0.0650
   56POPC   O11 7394   5.677   0.406   6.012  0.2203 -0.2877  0.0206
   56POPC    C1 7395   5.587   0.359   5.917  0.6047 -0.2471 -0.3584
   56POPC    HA 7396   5.499   0.427   5.907 -0.0494 -1.0060  0.0542
   56POPC    HB 7397   5.525   0.273   5.952  1.1419 -0.7057 -0.5254
   56POPC    C2 7398   5.652   0.312   5.789 -0.0640 -0.5095  0.3197
   56POPC    HS 7399   5.708   0.217   5.804  0.0713 -0.8198 -1.8346
   56POPC   O21 7400   5.740   0.411   5.733 -0.1472  0.0313 -0.8814
   56POPC   C21 7401   5.847   0.373   5.677 -0.9268 -0.0679 -0.2332
   56POPC   O22 7402   5.882   0.255   5.669 -0.2229 -0.3685  0.3062
   56POPC   C22 7403   5.928   0.499   5.620  0.0962  0.5419  0.7804
   56POPC   H2R 7404   5.953   0.565   5.705  5.6628 -1.0864  0.7985
   56POPC   H2S 7405   5.860   0.546   5.547 -0.1045 -0.3615  0.3650
   56POPC    C3 7406   5.543   0.284   5.684 -0.2374  0.4191 -0.5689
   56POPC    HX 7407   5.481   0.374   5.665 -1.4520 -0.1944  0.3460
   56POPC    HY 7408   5.472   0.214   5.732  0.2675 -0.7449 -1.4884
   56POPC   O31 7409   5.602   0.228   5.560 -0.3301 -0.3324 -0.4549
   56POPC   C31 7410   5.629   0.096   5.575 -0.0633 -0.1901 -0.0958
   56POPC   O32 7411   5.599   0.030   5.673 -0.5502  0.5622  0.6124
   56POPC   C32 7412   5.698   0.049   5.445  0.3191  0.0191 -0.5411
   56POPC   H2X 7413   5.614  -0.003   5.394 -1.5513  0.9540  1.4063
   56POPC   H2Y 7414   5.780  -0.021   5.471 -0.6303 -1.9383 -2.5115
   56POPC   C23 7415   6.064   0.445   5.562 -0.3510  0.4002  0.3442
   56POPC   H3R 7416   6.050   0.408   5.458  0.6010 -1.5736  0.8705
   56POPC   H3S 7417   6.108   0.366   5.627 -1.7698  0.1325  1.0180
   56POPC   C24 7418   6.163   0.559   5.544 -0.5239 -0.7006 -0.6065
   56POPC   H4R 7419   6.261   0.509   5.530 -0.1988 -0.0686 -0.6455
   56POPC   H4S 7420   6.167   0.630   5.629 -1.2972 -1.5749  0.1673
   56POPC   C25 7421   6.143   0.628   5.400  0.2822  0.2597 -0.1637
   56POPC   H5R 7422   6.037   0.661   5.401 -0.1549 -1.0277 -0.7763
   56POPC   H5S 7423   6.167   0.557   5.318  2.2829  0.9136 -0.1963
   56POPC   C26 7424   6.239   0.751   5.384  0.2220 -0.0361 -0.1566
   56POPC   H6R 7425   6.344   0.713   5.381 -0.1518 -1.1674  0.5944
   56POPC   H6S 7426   6.227   0.808   5.478  0.2597  0.0139 -0.1824
   56POPC   C27 7427   6.212   0.840   5.258 -0.5829 -0.4265 -0.3209
   56POPC   H7R 7428   6.289   0.919   5.268  0.0409 -1.1635  0.9874
   56POPC   H7S 7429   6.111   0.885   5.261 -0.1681  0.4828  0.6951
   56POPC   C28 7430   6.250   0.761   5.136 -0.7743 -0.1139  0.2046
   56POPC   H8R 7431   6.171   0.686   5.114  0.0875 -1.1077  0.3999
   56POPC   H8S 7432   6.337   0.693   5.149  1.6207  2.2249 -2.3167
   56POPC   C29 7433   6.269   0.836   5.009  0.0689 -0.4122 -0.0869
   56POPC   H91 7434   6.250   0.943   5.025 -2.5783 -0.9400  0.8888
   56POPC  C210 7435   6.299   0.782   4.890  0.1814 -0.4679  0.4367
   56POPC  H101 7436   6.315   0.839   4.797  2.4956 -0.4145  0.8310
   56POPC  C211 7437   6.318   0.635   4.865 -0.0124 -0.3314  0.4234
   56POPC  H11R 7438   6.236   0.578   4.915 -0.7225  0.8600  0.6652
   56POPC  H11S 7439   6.417   0.593   4.891  0.5884 -0.0661 -1.2774
   56POPC  C212 7440   6.314   0.614   4.711  0.1496  0.1316  1.0757
   56POPC  H12R 7441   6.398   0.674   4.670  1.2447 -1.6485  0.5900
   56POPC  H12S 7442   6.216   0.652   4.674 -0.0536 -2.5498 -1.4563
   56POPC  C213 7443   6.299   0.467   4.666 -0.2865  0.1260  0.0139
   56POPC  H13R 7444   6.217   0.415   4.720  0.3377  2.4888  3.5683
   56POPC  H13S 7445   6.394   0.414   4.687  1.0703  3.0111  1.7703
   56POPC  C214 7446   6.286   0.461   4.510 -0.4009  0.7879  0.0825
   56POPC  H14R 7447   6.381   0.492   4.461 -0.1618 -0.7577 -0.4635
   56POPC  H14S 7448   6.212   0.537   4.476  0.1396  0.1476 -2.7887
   56POPC  C215 7449   6.252   0.321   4.456  0.2855 -0.2452  0.9134
   56POPC  H15R 7450   6.322   0.251   4.507 -1.0350 -1.1223  1.6065
   56POPC  H15S 7451   6.260   0.312   4.346 -2.7198 -2.6816  0.7729
   56POPC  C216 7452   6.105   0.286   4.498 -0.8128 -0.1390  0.4788
   56POPC  H16R 7453   6.031   0.354   4.452 -3.0652 -2.1961  0.8075
   56POPC  H16S 7454   6.096   0.292   4.609  2.4701  0.6191  0.8067
   56POPC  C217 7455   6.059   0.143   4.460 -0.5488 -0.0917 -0.0192
   56POPC  H17R 7456   6.118   0.071   4.521  0.5027  1.5801  1.0071
   56POPC  H17S 7457   6.091   0.120   4.356  0.6024  0.5423  0.1768
   56POPC  C218 7458   5.910   0.131   4.459 -0.0761 -0.2973  0.0281
   56POPC  H18R 7459   5.869   0.216   4.400 -0.4434 -0.7622 -0.4024
   56POPC  H18S 7460   5.875   0.142   4.564  1.5350  0.3433  0.5239
   56POPC  H18T 7461   5.889   0.030   4.417 -0.0579  0.2293 -1.3154
   56POPC   C33 7462   5.754   0.152   5.342  0.5163 -0.0963 -0.1846
   56POPC   H3X 7463   5.838   0.208   5.389 -2.0527  1.7616  2.6290
   56POPC   H3Y 7464   5.681   0.226   5.303  1.0399 -0.4489 -1.8837
   56POPC   C34 7465   5.806   0.077   5.225  0.8141  0.1930  0.2352
   56POPC   H4X 7466   5.730   0.011   5.178 -1.0350  1.0008  1.9080
   56POPC   H4Y 7467   5.881   0.001   5.254  2.4205  0.4717 -2.8258
   56POPC   C35 7468   5.863   0.174   5.121  0.0312  0.1728 -0.2419
   56POPC   H5X 7469   5.957   0.219   5.161 -0.6526  0.2499  1.3664
   56POPC   H5Y 7470   5.789   0.256   5.113 -0.0753  0.3625  2.1032
   56POPC   C36 7471   5.896   0.109   4.985  0.3391  0.0974 -0.2062
   56POPC   H6X 7472   5.801   0.054   4.964 -0.0593  0.6151  0.2194
   56POPC   H6Y 7473   5.977   0.033   4.992  0.9547  0.6198 -1.3744
   56POPC   C37 7474   5.922   0.208   4.868 -0.4202  0.2904 -0.0886
   56POPC   H7X 7475   5.948   0.164   4.770 -0.9632  2.2051 -1.1588
   56POPC   H7Y 7476   6.005   0.276   4.898 -0.2522 -0.3270  0.9074
   56POPC   C38 7477   5.806   0.305   4.834  0.0736 -0.4009  0.6627
   56POPC   H8X 7478   5.771   0.347   4.931 -0.7726  1.7767 -0.5115
   56POPC   H8Y 7479   5.716   0.268   4.780  0.0749  1.0500 -0.4200
   56POPC   C39 7480   5.848   0.426   4.751 -0.1705  0.5331  0.1600
   56POPC   H9X 7481   5.892   0.396   4.653 -3.8938 -1.7812 -1.0018
   56POPC   H9Y 7482   5.917   0.490   4.811  1.1930 -0.5849 -0.1474
   56POPC  C310 7483   5.727   0.523   4.729 -0.6725  1.2523  0.3883
   56POPC  H10X 7484   5.714   0.598   4.810 -1.0345 -0.0442  1.5691
   56POPC  H10Y 7485   5.629   0.471   4.738 -0.2102  0.5185  1.4043
   56POPC  C311 7486   5.739   0.588   4.598 -0.5530  0.4266  0.9037
   56POPC  H11X 7487   5.742   0.505   4.525  0.4223 -0.8159  2.2771
   56POPC  H11Y 7488   5.836   0.642   4.592 -0.1951 -0.3211 -0.4157
   56POPC  C312 7489   5.637   0.693   4.577  0.1456 -0.2452  0.8401
   56POPC  H12X 7490   5.661   0.769   4.654  0.1688  1.4610 -0.7831
   56POPC  H12Y 7491   5.534   0.651   4.585 -0.3582  0.8136  0.1186
   56POPC  C313 7492   5.632   0.764   4.441  0.6999 -0.0434  0.5587
   56POPC  H13X 7493   5.600   0.681   4.374  0.4615 -1.9455  2.8937
   56POPC  H13Y 7494   5.731   0.789   4.397 -0.6857  1.7012 -1.8134
   56POPC  C314 7495   5.535   0.887   4.435 -0.0313 -0.5577 -0.8556
   56POPC  H14X 7496   5.551   0.944   4.529  1.9779  0.4597 -1.7553
   56POPC  H14Y 7497   5.430   0.850   4.436  0.5192 -2.2169 -0.8586
   56POPC  C315 7498   5.553   0.977   4.316  0.0252 -0.4505  0.5457
   56POPC  H15X 7499   5.534   0.907   4.232  0.3058  0.9151 -0.7073
   56POPC  H15Y 7500   5.659   1.010   4.310  0.3887 -1.5166  0.9987
   56POPC  C316 7501   5.451   1.096   4.302 -0.4010  0.6273 -0.4153
   56POPC  H16X 7502   5.478   1.163   4.218  0.6396  0.0602 -0.5650
   56POPC  H16Y 7503   5.459   1.161   4.391  2.1450  1.1670 -0.9366
   56POPC  H16Z 7504   5.345   1.064   4.297  0.0081 -0.9604  0.3713
   57POPC     N 7505   5.406   5.672   6.460 -0.1382  0.1390 -0.2310
   57POPC   C12 7506   5.317   5.758   6.540  0.4577  0.4341  0.7653
   57POPC  H12A 7507   5.357   5.755   6.640  1.2475  2.2210  0.5483
   57POPC  H12B 7508   5.222   5.707   6.538  0.8047 -0.2626  1.4790
   57POPC   C13 7509   5.539   5.736   6.443  0.6901  0.6174  0.1555
   57POPC  H13A 7510   5.585   5.756   6.539  0.1565 -0.1526  0.5794
   57POPC  H13B 7511   5.611   5.683   6.382  0.1950 -0.6681  0.6652
   57POPC  H13C 7512   5.528   5.833   6.397 -1.4495  1.5469  2.3708
   57POPC   C14 7513   5.425   5.540   6.527 -0.7328  0.0930 -0.0456
   57POPC  H14A 7514   5.470   5.564   6.622  0.4693  1.3949 -0.9001
   57POPC  H14B 7515   5.334   5.482   6.540 -0.1711 -0.5419  1.1276
   57POPC  H14C 7516   5.485   5.477   6.463  1.3336  1.4667  0.4654
   57POPC   C15 7517   5.347   5.645   6.325 -0.6867  0.0909 -0.4228
   57POPC  H15A 7518   5.252   5.595   6.334 -0.5899  0.1171  0.9493
   57POPC  H15B 7519   5.417   5.584   6.269  0.0649 -1.8074  2.4073
   57POPC  H15C 7520   5.337   5.738   6.271  0.3162 -0.1386 -1.0430
   57POPC   C11 7521   5.294   5.908   6.502 -0.3786  0.4960 -0.7417
   57POPC  H11A 7522   5.392   5.958   6.495 -0.0928  0.3392  1.4506
   57POPC  H11B 7523   5.235   5.952   6.585  0.7698 -0.5786  0.7057
   57POPC     P 7524   5.079   5.939   6.360  0.6841  0.6261  0.4539
   57POPC   O13 7525   5.041   6.068   6.424 -0.0967  0.6703  0.2917
   57POPC   O14 7526   5.008   5.814   6.403  0.3664 -0.1131 -0.1068
   57POPC   O12 7527   5.233   5.922   6.374  0.5438  0.9412 -0.2235
   57POPC   O11 7528   5.052   5.956   6.203  0.6369  0.4806 -0.5269
   57POPC    C1 7529   5.163   5.957   6.116  0.3022  0.1394  0.0722
   57POPC    HA 7530   5.228   5.867   6.130  1.0745  0.3479 -1.8252
   57POPC    HB 7531   5.226   6.046   6.142 -0.2729  0.2023  1.3379
   57POPC    C2 7532   5.124   5.972   5.966 -0.1121  0.6840 -1.1275
   57POPC    HS 7533   5.216   5.987   5.905  0.6244 -0.7491 -0.4293
   57POPC   O21 7534   5.018   6.070   5.954  0.1613 -0.1493 -0.7055
   57POPC   C21 7535   5.065   6.188   5.936  0.6467 -0.4663  0.6833
   57POPC   O22 7536   5.183   6.220   5.935 -0.7378  0.4331 -0.1678
   57POPC   C22 7537   4.945   6.286   5.927 -0.5063 -0.2272  0.4620
   57POPC   H2R 7538   4.941   6.344   6.021  0.3310 -1.0832  1.0510
   57POPC   H2S 7539   4.850   6.230   5.911 -0.6937  0.1164  0.3607
   57POPC    C3 7540   5.076   5.834   5.921 -0.1819 -1.1041  0.0232
   57POPC    HX 7541   4.983   5.820   5.981 -0.8310 -0.8377 -0.9071
   57POPC    HY 7542   5.146   5.758   5.962  1.4897  1.4527  2.3499
   57POPC   O31 7543   5.052   5.828   5.778  0.0764 -0.2364 -0.7203
   57POPC   C31 7544   4.981   5.717   5.747 -0.0850 -0.2429  0.2762
   57POPC   O32 7545   4.925   5.645   5.827 -0.4061 -0.2846 -0.0353
   57POPC   C32 7546   4.976   5.711   5.589 -0.3353 -0.1984 -0.4613
   57POPC   H2X 7547   4.909   5.628   5.559  0.4815 -1.9576  2.2483
   57POPC   H2Y 7548   5.080   5.683   5.565  0.2274  0.1665  1.4232
   57POPC   C23 7549   4.962   6.381   5.809  0.2396 -0.0411  0.4704
   57POPC   H3R 7550   5.069   6.409   5.811  0.3248 -0.2859 -0.3659
   57POPC   H3S 7551   4.908   6.476   5.830  2.6170  1.3782  0.4327
   57POPC   C24 7552   4.911   6.319   5.689  0.0464 -0.2918  0.3907
   57POPC   H4R 7553   4.801   6.307   5.698 -0.1740  0.4070 -1.0329
   57POPC   H4S 7554   4.960   6.220   5.678 -2.1851 -1.4859  0.5533
   57POPC   C25 7555   4.941   6.388   5.557  0.2986  0.1455 -1.1076
   57POPC   H5R 7556   4.872   6.472   5.536 -0.2426  0.1177  0.3877
   57POPC   H5S 7557   4.930   6.316   5.473  0.5297 -1.5346  0.2376
   57POPC   C26 7558   5.082   6.440   5.537  0.0083  0.7987  0.0104
   57POPC   H6R 7559   5.155   6.364   5.571 -1.0176  0.5993  1.9040
   57POPC   H6S 7560   5.094   6.528   5.603 -0.1082  2.2232 -1.7757
   57POPC   C27 7561   5.122   6.461   5.391 -0.1351 -0.2090  0.1286
   57POPC   H7R 7562   5.228   6.493   5.393 -0.3623  0.5563  1.0592
   57POPC   H7S 7563   5.065   6.551   5.361  1.4515  0.3734 -1.2443
   57POPC   C28 7564   5.102   6.353   5.292 -0.7084 -0.4394  1.0183
   57POPC   H8R 7565   5.124   6.383   5.187  1.4759 -0.3447  1.4542
   57POPC   H8S 7566   4.997   6.319   5.296 -0.5507 -0.8564  1.9003
   57POPC   C29 7567   5.194   6.236   5.331  0.3452  0.4078  0.1617
   57POPC   H91 7568   5.156   6.192   5.425 -1.2942 -0.0569 -0.6737
   57POPC  C210 7569   5.314   6.209   5.285 -0.7780 -0.5594  0.2253
   57POPC  H101 7570   5.380   6.132   5.328  2.8938  1.4887 -1.2374
   57POPC  C211 7571   5.392   6.289   5.182  0.0708 -0.2952 -0.3315
   57POPC  H11R 7572   5.496   6.263   5.214 -0.9782 -1.9002  2.0618
   57POPC  H11S 7573   5.370   6.398   5.186 -3.8917 -0.8537 -2.0245
   57POPC  C212 7574   5.372   6.245   5.041  0.0430  1.0798 -1.0858
   57POPC  H12R 7575   5.269   6.242   5.001 -0.0459 -2.1024 -0.8159
   57POPC  H12S 7576   5.409   6.141   5.027  0.6561  1.2305 -0.6618
   57POPC  C213 7577   5.473   6.308   4.936  0.6295  0.2074  0.1221
   57POPC  H13R 7578   5.570   6.261   4.965  0.8175 -0.2722 -1.2282
   57POPC  H13S 7579   5.482   6.419   4.945  2.7947  0.0593  0.2804
   57POPC  C214 7580   5.426   6.277   4.791 -0.2624  0.4497 -0.5751
   57POPC  H14R 7581   5.492   6.345   4.733  2.0590 -1.3277 -0.1607
   57POPC  H14S 7582   5.321   6.312   4.791 -0.6366 -0.6094  0.6255
   57POPC  C215 7583   5.455   6.137   4.738  0.2089  0.1825  0.7203
   57POPC  H15R 7584   5.388   6.063   4.787 -0.5675 -0.1855 -0.8350
   57POPC  H15S 7585   5.559   6.113   4.770  1.1404  1.9155 -0.7804
   57POPC  C216 7586   5.438   6.107   4.592  0.6253 -0.4787 -0.5496
   57POPC  H16R 7587   5.506   6.023   4.565  2.1931  0.8792 -0.9897
   57POPC  H16S 7588   5.492   6.190   4.540  1.7556 -0.5062  0.5405
   57POPC  C217 7589   5.285   6.082   4.551  0.4896  0.1661  0.1508
   57POPC  H17R 7590   5.221   6.170   4.571 -1.1514 -0.3288 -2.5240
   57POPC  H17S 7591   5.259   5.984   4.597  1.1892 -2.4107 -4.2980
   57POPC  C218 7592   5.268   6.053   4.404 -0.2420 -0.4716 -0.3574
   57POPC  H18R 7593   5.314   6.127   4.334  0.9945 -0.2217  0.6830
   57POPC  H18S 7594   5.161   6.034   4.381 -0.0886  0.1059 -1.6671
   57POPC  H18T 7595   5.311   5.954   4.380 -0.5470  0.0946 -3.7776
   57POPC   C33 7596   4.940   5.846   5.525  0.1203 -0.1145  0.1210
   57POPC   H3X 7597   5.017   5.918   5.559  1.0994 -0.7378 -0.7178
   57POPC   H3Y 7598   4.844   5.884   5.565  0.5001 -1.2304  2.1924
   57POPC   C34 7599   4.931   5.838   5.378 -0.4110  0.2757  0.5846
   57POPC   H4X 7600   4.867   5.753   5.346 -1.5356  0.9326  1.0495
   57POPC   H4Y 7601   5.036   5.814   5.351 -0.4925 -0.7889  1.1443
   57POPC   C35 7602   4.880   5.967   5.307  1.1205 -0.9125  0.1188
   57POPC   H5X 7603   4.933   6.056   5.347  0.3121 -0.6485  0.6120
   57POPC   H5Y 7604   4.771   5.978   5.322  0.1762 -2.0780 -4.3084
   57POPC   C36 7605   4.909   5.965   5.153  0.8918  0.1357 -0.0368
   57POPC   H6X 7606   4.877   5.871   5.103  0.0128  0.5903 -0.3428
   57POPC   H6Y 7607   5.018   5.957   5.133  0.4963 -0.4091 -2.2160
   57POPC   C37 7608   4.852   6.082   5.080  0.8394 -0.3622 -0.6032
   57POPC   H7X 7609   4.840   6.176   5.138  1.8092  0.6355 -1.9474
   57POPC   H7Y 7610   4.750   6.056   5.043  1.1431  0.7791 -2.3423
   57POPC   C38 7611   4.938   6.123   4.967  0.7520 -0.4303 -0.1368
   57POPC   H8X 7612   4.950   6.033   4.902 -1.3184 -0.4938 -0.5105
   57POPC   H8Y 7613   5.032   6.169   5.002  1.1546  1.1291 -2.9303
   57POPC   C39 7614   4.872   6.219   4.868  0.3723  0.8124 -0.2261
   57POPC   H9X 7615   4.845   6.312   4.922  1.5779  0.3768  1.2160
   57POPC   H9Y 7616   4.777   6.182   4.823  1.1594 -0.5938 -0.8016
   57POPC  C310 7617   4.950   6.230   4.736 -0.3035  0.1227  0.2386
   57POPC  H10X 7618   4.975   6.129   4.698 -0.5557 -0.4358  1.5025
   57POPC  H10Y 7619   5.037   6.298   4.737  0.6854 -1.0789 -0.6459
   57POPC  C311 7620   4.866   6.294   4.622  0.4553  0.7876  0.1109
   57POPC  H11X 7621   4.854   6.398   4.660 -0.4809 -0.2829  2.9369
   57POPC  H11Y 7622   4.768   6.245   4.608  0.7227  0.6707 -1.6110
   57POPC  C312 7623   4.936   6.311   4.485  0.2241 -0.2119 -1.0473
   57POPC  H12X 7624   4.956   6.222   4.422 -1.6861 -0.5825 -1.1763
   57POPC  H12Y 7625   5.041   6.335   4.513  0.3469 -0.2054 -1.4996
   57POPC  C313 7626   4.861   6.415   4.403 -0.2775 -0.5985  0.2744
   57POPC  H13X 7627   4.846   6.516   4.445  1.5702 -0.5330  0.8801
   57POPC  H13Y 7628   4.763   6.385   4.359 -0.7855 -0.2984  1.1655
   57POPC  C314 7629   4.949   6.446   4.282 -0.2749  0.1693 -0.3145
   57POPC  H14X 7630   4.958   6.350   4.227 -1.9698 -0.6569  0.7447
   57POPC  H14Y 7631   5.051   6.475   4.313 -0.6845  0.9506  0.3328
   57POPC  C315 7632   4.891   6.544   4.178 -0.0836  0.5182  0.6380
   57POPC  H15X 7633   4.796   6.500   4.140  0.4593 -0.9326  0.8773
   57POPC  H15Y 7634   4.957   6.543   4.088  0.0838  0.3874  0.7605
   57POPC  C316 7635   4.868   6.692   4.207 -0.4974  0.5272 -0.1954
   57POPC  H16X 7636   4.958   6.755   4.224 -0.3707 -0.0390  1.4020
   57POPC  H16Y 7637   4.819   6.680   4.306  0.3771  1.0495  0.3099
   57POPC  H16Z 7638   4.805   6.748   4.134  0.8060  0.8486 -1.1126
   58POPC     N 7639   0.925   5.567   5.739  0.2961  0.4525 -0.2513
   58POPC   C12 7640   0.845   5.524   5.617  0.3668  0.0139  0.0673
   58POPC  H12A 7641   0.881   5.426   5.589  0.3196 -0.1932  0.7173
   58POPC  H12B 7642   0.873   5.587   5.534 -0.6060  1.1421  0.5581
   58POPC   C13 7643   1.067   5.577   5.692  0.5053  0.4883  0.0520
   58POPC  H13A 7644   1.101   5.485   5.647  0.9618  0.4832  0.4054
   58POPC  H13B 7645   1.068   5.650   5.612 -0.7188  0.3348 -0.1320
   58POPC  H13C 7646   1.133   5.618   5.766 -1.1119  3.6902 -0.0951
   58POPC   C14 7647   0.885   5.695   5.810  0.1382 -0.0918  0.2687
   58POPC  H14A 7648   0.945   5.709   5.898  1.7660  0.0104 -0.8175
   58POPC  H14B 7649   0.908   5.779   5.745  1.1718 -0.1535  0.5355
   58POPC  H14C 7650   0.779   5.696   5.828  0.2281  1.8973  0.9776
   58POPC   C15 7651   0.904   5.457   5.847 -0.0498 -0.6573  0.0652
   58POPC  H15A 7652   0.926   5.354   5.822  1.0887 -0.6179  0.8129
   58POPC  H15B 7653   0.802   5.459   5.884 -0.3445  1.9870 -0.6580
   58POPC  H15C 7654   0.963   5.489   5.932  0.6207 -0.1330 -0.5865
   58POPC   C11 7655   0.693   5.521   5.632  0.8614  0.3591 -0.4354
   58POPC  H11A 7656   0.669   5.432   5.695 -1.6426  2.0263  1.1453
   58POPC  H11B 7657   0.659   5.513   5.527  0.5494  0.3255 -0.3326
   58POPC     P 7658   0.498   5.633   5.763  0.1361 -0.3767  0.2436
   58POPC   O13 7659   0.478   5.762   5.836 -0.0440  0.0874  0.3058
   58POPC   O14 7660   0.486   5.512   5.841  0.3062  0.6118  0.3073
   58POPC   O12 7661   0.635   5.642   5.689  0.0349  0.2509  0.4547
   58POPC   O11 7662   0.400   5.633   5.643  0.5978 -0.2577  0.1537
   58POPC    C1 7663   0.363   5.755   5.578 -0.1496 -0.3833 -1.0223
   58POPC    HA 7664   0.434   5.838   5.598 -0.7629  0.7997 -3.4303
   58POPC    HB 7665   0.266   5.791   5.618  0.1570 -0.2924 -0.3458
   58POPC    C2 7666   0.350   5.755   5.426  0.3921  0.3160  0.1810
   58POPC    HS 7667   0.340   5.854   5.377 -1.1239 -0.9942 -2.3228
   58POPC   O21 7668   0.242   5.673   5.388  0.1345 -0.0097  0.5848
   58POPC   C21 7669   0.134   5.746   5.364  0.4432  0.0288 -0.5820
   58POPC   O22 7670   0.114   5.858   5.401  0.2612 -0.4712  0.2864
   58POPC   C22 7671   0.035   5.661   5.288  0.5652 -0.0931  1.0348
   58POPC   H2R 7672  -0.051   5.721   5.253  1.8295  0.5828 -1.0983
   58POPC   H2S 7673  -0.001   5.587   5.363  1.3030  0.0247  1.5244
   58POPC    C3 7674   0.472   5.687   5.354 -0.5214 -0.3922  0.1238
   58POPC    HX 7675   0.450   5.578   5.360 -2.9808  0.1054  2.0418
   58POPC    HY 7676   0.568   5.706   5.406 -0.3746  1.3014 -0.7000
   58POPC   O31 7677   0.483   5.736   5.217 -0.7150  0.0076 -0.3018
   58POPC   C31 7678   0.589   5.686   5.156  0.8781  0.3943 -0.2287
   58POPC   O32 7679   0.676   5.616   5.201 -0.0139 -0.2596  0.3861
   58POPC   C32 7680   0.585   5.728   5.006 -0.4461  0.1205 -0.1136
   58POPC   H2X 7681   0.527   5.654   4.946  0.6472 -0.5765 -0.3357
   58POPC   H2Y 7682   0.686   5.726   4.960 -0.5497 -0.4164 -0.3285
   58POPC   C23 7683   0.101   5.589   5.166 -0.5032  0.3278  0.1725
   58POPC   H3R 7684   0.166   5.654   5.105 -0.5861 -0.7496 -1.1151
   58POPC   H3S 7685   0.025   5.568   5.088  0.8776  3.3586 -2.2031
   58POPC   C24 7686   0.168   5.454   5.205 -0.2759 -0.0374  0.0371
   58POPC   H4R 7687   0.099   5.374   5.237 -1.1405  0.4870 -0.4830
   58POPC   H4S 7688   0.226   5.471   5.298 -1.6691 -1.2710  1.1887
   58POPC   C25 7689   0.254   5.393   5.090 -0.1352  0.4031  0.2851
   58POPC   H5R 7690   0.304   5.302   5.129 -0.5880 -0.4599 -1.0864
   58POPC   H5S 7691   0.331   5.470   5.067  0.4712 -0.9557 -2.8094
   58POPC   C26 7692   0.173   5.347   4.965  0.1305  0.1698 -1.1560
   58POPC   H6R 7693   0.121   5.441   4.936 -0.8004  0.9953  2.5959
   58POPC   H6S 7694   0.099   5.267   4.989  0.2071  0.0381 -1.3608
   58POPC   C27 7695   0.261   5.283   4.852 -0.6751 -0.8204 -0.4458
   58POPC   H7R 7696   0.208   5.267   4.756 -0.4821 -0.4682 -0.6125
   58POPC   H7S 7697   0.277   5.179   4.888 -1.0999 -0.4682  0.8050
   58POPC   C28 7698   0.389   5.364   4.817  0.1802 -0.1027 -0.5610
   58POPC   H8R 7699   0.443   5.319   4.731  0.5229 -1.0680  0.1513
   58POPC   H8S 7700   0.460   5.360   4.902  0.2662 -3.6264 -0.6849
   58POPC   C29 7701   0.351   5.506   4.784  0.3669  0.1068  0.5888
   58POPC   H91 7702   0.333   5.555   4.882  3.1904  0.0255  1.2118
   58POPC  C210 7703   0.346   5.574   4.665 -0.3742 -0.0240  0.2585
   58POPC  H101 7704   0.329   5.682   4.654  3.7424  0.5917 -2.2459
   58POPC  C211 7705   0.380   5.515   4.530  0.7403 -0.0363  1.0038
   58POPC  H11R 7706   0.305   5.448   4.483  1.5253 -0.6119  0.5375
   58POPC  H11S 7707   0.473   5.455   4.543  0.5957 -0.8493 -1.2617
   58POPC  C212 7708   0.423   5.621   4.426 -0.0892 -0.5804 -0.3607
   58POPC  H12R 7709   0.495   5.569   4.358  0.2485  0.6789 -0.9881
   58POPC  H12S 7710   0.482   5.701   4.476 -1.5619  0.5286 -0.3337
   58POPC  C213 7711   0.307   5.689   4.352 -0.0254  0.1701  0.2239
   58POPC  H13R 7712   0.238   5.747   4.416 -1.5468  0.9818 -2.0305
   58POPC  H13S 7713   0.252   5.609   4.297  0.9201  0.2750 -0.9084
   58POPC  C214 7714   0.346   5.794   4.240 -0.3671  0.3388 -0.5653
   58POPC  H14R 7715   0.421   5.740   4.178 -1.0116  1.4526 -2.3658
   58POPC  H14S 7716   0.396   5.880   4.289  2.6441 -0.9890 -1.0746
   58POPC  C215 7717   0.235   5.854   4.163 -0.3080  0.6101 -0.9154
   58POPC  H15R 7718   0.225   5.961   4.191  4.8903  0.8364  1.1336
   58POPC  H15S 7719   0.144   5.791   4.177 -0.9325  1.6852  0.0103
   58POPC  C216 7720   0.257   5.852   4.011 -0.1633  0.0549  0.5306
   58POPC  H16R 7721   0.284   5.751   3.971 -0.4055 -0.2505  1.1240
   58POPC  H16S 7722   0.344   5.918   3.988  0.4922 -1.1450 -0.5389
   58POPC  C217 7723   0.132   5.905   3.932 -0.1344 -0.0656  0.1189
   58POPC  H17R 7724   0.105   6.005   3.973 -0.3665 -0.8478  1.9784
   58POPC  H17S 7725   0.045   5.839   3.956  0.1501 -1.2720 -1.9160
   58POPC  C218 7726   0.160   5.910   3.785 -0.4651 -0.3119 -0.2470
   58POPC  H18R 7727   0.147   5.810   3.738  4.3363 -1.5351  0.5191
   58POPC  H18S 7728   0.267   5.930   3.767 -0.2630  1.2220  2.1304
   58POPC  H18T 7729   0.102   5.981   3.722 -0.2411  0.4474  0.3745
   58POPC   C33 7730   0.517   5.861   4.983 -0.8886 -0.9888  0.5328
   58POPC   H3X 7731   0.569   5.943   5.036 -4.2341  2.7411 -1.4589
   58POPC   H3Y 7732   0.415   5.872   5.026 -0.3315  1.1189  1.4081
   58POPC   C34 7733   0.512   5.892   4.836  0.6780  0.0136 -0.2524
   58POPC   H4X 7734   0.419   5.850   4.791  2.1561 -1.8148 -1.7776
   58POPC   H4Y 7735   0.583   5.837   4.770 -0.6801 -1.3959 -0.6057
   58POPC   C35 7736   0.528   6.040   4.802 -0.1516 -0.5158  0.2059
   58POPC   H5X 7737   0.619   6.065   4.860  0.5747  1.4165 -1.6023
   58POPC   H5Y 7738   0.454   6.103   4.856  1.1407 -0.0404  1.5020
   58POPC   C36 7739   0.540   6.076   4.652 -0.3888 -0.0601  0.3189
   58POPC   H6X 7740   0.444   6.091   4.598  0.4654 -0.4387 -1.3767
   58POPC   H6Y 7741   0.593   5.990   4.605  0.2520 -0.7386  2.1650
   58POPC   C37 7742   0.628   6.199   4.631  0.1934 -0.0438 -0.5645
   58POPC   H7X 7743   0.730   6.171   4.666  0.1044 -1.3624 -1.2865
   58POPC   H7Y 7744   0.592   6.285   4.691  1.7142  0.6321 -0.5851
   58POPC   C38 7745   0.645   6.234   4.487  0.7686  0.0061 -0.1354
   58POPC   H8X 7746   0.560   6.299   4.457  1.3410  2.1492  2.4592
   58POPC   H8Y 7747   0.648   6.142   4.425  1.0970  0.5967 -1.0140
   58POPC   C39 7748   0.773   6.309   4.452  0.5461  0.0075  0.4867
   58POPC   H9X 7749   0.862   6.244   4.471  0.4160 -0.5639 -0.7366
   58POPC   H9Y 7750   0.778   6.394   4.523 -0.8051  0.9800 -0.5399
   58POPC  C310 7751   0.780   6.364   4.306  0.8732 -0.2716 -0.3890
   58POPC  H10X 7752   0.693   6.429   4.281  1.5690  0.6944 -0.3743
   58POPC  H10Y 7753   0.785   6.282   4.231  0.7873 -0.6865  0.0549
   58POPC  C311 7754   0.903   6.451   4.286  0.6336 -0.4561  0.7102
   58POPC  H11X 7755   0.993   6.406   4.333  1.3803 -1.7924 -1.8447
   58POPC  H11Y 7756   0.898   6.553   4.332  1.2841 -0.1846  0.2032
   58POPC  C312 7757   0.943   6.464   4.134 -0.7352  0.0999  0.7976
   58POPC  H12X 7758   0.858   6.512   4.081 -0.3768 -1.1425 -0.9645
   58POPC  H12Y 7759   0.956   6.363   4.090 -0.8650  0.3783  0.1151
   58POPC  C313 7760   1.073   6.544   4.114  0.3313 -0.7926 -0.2916
   58POPC  H13X 7761   1.147   6.497   4.181  1.9151  1.0553 -0.6661
   58POPC  H13Y 7762   1.069   6.652   4.140  3.5250 -0.3798 -1.0829
   58POPC  C314 7763   1.129   6.550   3.974 -0.0896  1.1667 -0.4250
   58POPC  H14X 7764   1.056   6.618   3.925 -0.4648  2.3378  1.6373
   58POPC  H14Y 7765   1.125   6.447   3.934 -2.0148  0.9746  0.1455
   58POPC  C315 7766   1.266   6.612   3.967 -0.0359  0.1952 -0.0530
   58POPC  H15X 7767   1.325   6.542   4.030 -0.7472  1.6469  2.3661
   58POPC  H15Y 7768   1.274   6.712   4.016 -0.1914 -0.7824  2.1109
   58POPC  C316 7769   1.301   6.619   3.816 -0.2843 -0.1028  0.2358
   58POPC  H16X 7770   1.284   6.526   3.759  2.4135 -0.4799 -0.0717
   58POPC  H16Y 7771   1.407   6.651   3.802 -0.1445 -0.8062 -0.3254
   58POPC  H16Z 7772   1.237   6.698   3.772  1.2004  0.5105 -0.8812
   59POPC     N 7773   0.050   6.136   5.802 -0.2294 -0.5586  0.3500
   59POPC   C12 7774   0.041   6.288   5.773 -0.0167  0.4728 -0.0370
   59POPC  H12A 7775  -0.022   6.300   5.687  1.5418  2.9407 -0.9389
   59POPC  H12B 7776   0.138   6.320   5.737 -0.0975 -0.1676 -0.8284
   59POPC   C13 7777   0.137   6.103   5.917  0.2594  0.5475 -0.4725
   59POPC  H13A 7778   0.089   6.140   6.006  1.3090  1.4964 -0.2734
   59POPC  H13B 7779   0.155   5.997   5.935 -0.1285  0.5223 -0.2326
   59POPC  H13C 7780   0.238   6.139   5.904  1.1880 -1.3384  0.9714
   59POPC   C14 7781  -0.088   6.080   5.825  0.1091  0.2357 -0.6358
   59POPC  H14A 7782  -0.096   5.972   5.830  0.0079  0.2313 -0.8814
   59POPC  H14B 7783  -0.135   6.124   5.912  0.1280 -1.9479  0.5294
   59POPC  H14C 7784  -0.148   6.109   5.740 -1.5666  0.4716  0.5797
   59POPC   C15 7785   0.105   6.070   5.671 -0.4237  0.5524 -0.7007
   59POPC  H15A 7786   0.207   6.099   5.653 -0.4548  1.2486  0.1630
   59POPC  H15B 7787   0.051   6.078   5.578 -2.8315  0.3317  0.6151
   59POPC  H15C 7788   0.113   5.966   5.700  1.4215  0.9160  0.2790
   59POPC   C11 7789  -0.007   6.363   5.895  0.4632  0.3632  0.5786
   59POPC  H11A 7790  -0.101   6.320   5.936  1.4678 -1.7484  0.8052
   59POPC  H11B 7791  -0.023   6.467   5.859  1.8165  0.2141 -0.5656
   59POPC     P 7792   0.198   6.472   6.026 -0.3865  0.0322  0.1097
   59POPC   O13 7793   0.297   6.421   6.126  0.4563 -0.3929  0.5587
   59POPC   O14 7794   0.133   6.604   6.049 -0.3450 -0.8706  0.0821
   59POPC   O12 7795   0.086   6.363   5.998 -0.1271 -0.0386  0.4335
   59POPC   O11 7796   0.259   6.479   5.880 -0.0513  0.0217 -0.3129
   59POPC    C1 7797   0.377   6.402   5.847  0.1945 -0.4967 -0.2028
   59POPC    HA 7798   0.358   6.294   5.859 -0.6124 -0.5523 -1.6729
   59POPC    HB 7799   0.466   6.426   5.909 -1.5799 -0.1709  2.3315
   59POPC    C2 7800   0.403   6.407   5.690  0.5126  0.3472  0.1224
   59POPC    HS 7801   0.463   6.497   5.666  1.8230 -0.7786 -0.9593
   59POPC   O21 7802   0.276   6.394   5.613  0.1626  0.2286  0.3157
   59POPC   C21 7803   0.260   6.494   5.531 -0.0924 -0.1187  1.0192
   59POPC   O22 7804   0.351   6.568   5.494  0.3955  0.5093 -0.5708
   59POPC   C22 7805   0.123   6.484   5.466 -0.3325 -0.3053 -0.1318
   59POPC   H2R 7806   0.054   6.512   5.548 -1.3490 -0.9568 -0.7389
   59POPC   H2S 7807   0.097   6.379   5.443  2.1377 -1.2260  0.9989
   59POPC    C3 7808   0.495   6.298   5.640 -0.2109 -0.1611 -0.8242
   59POPC    HX 7809   0.479   6.207   5.703  2.0871  0.1399  0.3127
   59POPC    HY 7810   0.598   6.332   5.665 -0.3912 -0.6732  0.6949
   59POPC   O31 7811   0.497   6.279   5.496  0.1968  0.6416 -0.1017
   59POPC   C31 7812   0.416   6.191   5.443  0.2679  0.1874  0.5858
   59POPC   O32 7813   0.344   6.112   5.504  0.0484 -0.0145  0.3282
   59POPC   C32 7814   0.433   6.186   5.289  0.2801 -0.3349  0.2459
   59POPC   H2X 7815   0.348   6.121   5.258  0.7370 -0.9166  0.1900
   59POPC   H2Y 7816   0.527   6.130   5.269  0.3194 -1.6363  3.5256
   59POPC   C23 7817   0.107   6.581   5.346  0.0806 -0.1977 -0.1245
   59POPC   H3R 7818   0.183   6.543   5.273  1.9657  3.7466 -0.5135
   59POPC   H3S 7819   0.139   6.682   5.378  0.2072 -0.7164  1.4358
   59POPC   C24 7820  -0.028   6.587   5.271  0.6221  0.4339  0.2090
   59POPC   H4R 7821  -0.111   6.625   5.334  1.3464  2.0958  0.2176
   59POPC   H4S 7822  -0.062   6.483   5.252 -0.2313  0.5409  1.1122
   59POPC   C25 7823  -0.013   6.672   5.142  0.5031 -0.0435 -0.5997
   59POPC   H5R 7824   0.030   6.769   5.173 -0.5583 -0.1520  1.4111
   59POPC   H5S 7825  -0.112   6.678   5.091 -0.0013 -0.9823  0.2281
   59POPC   C26 7826   0.072   6.604   5.030 -0.4383 -0.3893 -0.3338
   59POPC   H6R 7827   0.176   6.592   5.068 -0.5318  2.7584  1.2294
   59POPC   H6S 7828   0.065   6.674   4.944 -0.9583 -0.5640 -0.4365
   59POPC   C27 7829   0.018   6.467   4.982  0.0286 -0.2677  0.0286
   59POPC   H7R 7830  -0.091   6.471   5.001  0.2229  0.5132  1.0735
   59POPC   H7S 7831   0.055   6.392   5.055  1.5126 -0.0183 -0.4225
   59POPC   C28 7832   0.047   6.430   4.837  0.3012  0.8147  0.7758
   59POPC   H8R 7833   0.005   6.507   4.768 -0.7356  1.3374  1.9522
   59POPC   H8S 7834  -0.018   6.341   4.822 -1.6670  2.2032  0.7150
   59POPC   C29 7835   0.190   6.392   4.818  0.4613 -0.0868 -0.6334
   59POPC   H91 7836   0.250   6.409   4.909  1.5943  0.4793 -1.4554
   59POPC  C210 7837   0.235   6.308   4.723  0.2855  0.2741  0.4064
   59POPC  H101 7838   0.343   6.286   4.719  0.5119  1.3555  0.1590
   59POPC  C211 7839   0.161   6.280   4.596  0.5693  0.8088  0.1855
   59POPC  H11R 7840   0.053   6.306   4.600  0.8187  1.8131  3.1573
   59POPC  H11S 7841   0.162   6.169   4.587  0.2617  0.8383 -0.2107
   59POPC  C212 7842   0.241   6.338   4.477  0.1976  0.3773 -0.2205
   59POPC  H12R 7843   0.345   6.298   4.476 -0.4162 -1.2880 -0.6400
   59POPC  H12S 7844   0.237   6.449   4.484 -0.0003  0.3472  0.1786
   59POPC  C213 7845   0.176   6.292   4.341 -0.5350  0.1207 -0.3314
   59POPC  H13R 7846   0.072   6.330   4.330 -0.4456  0.3402 -0.4196
   59POPC  H13S 7847   0.181   6.181   4.342  0.3980  0.1297 -1.6120
   59POPC  C214 7848   0.273   6.342   4.233  1.2078 -0.6810 -0.0548
   59POPC  H14R 7849   0.374   6.353   4.278  0.4712 -0.9628  1.7519
   59POPC  H14S 7850   0.248   6.442   4.192 -0.1793 -1.1336 -0.3801
   59POPC  C215 7851   0.275   6.241   4.122 -0.3671  0.5269  0.9298
   59POPC  H15R 7852   0.173   6.212   4.090  0.6081 -1.3804 -0.6735
   59POPC  H15S 7853   0.323   6.149   4.163  0.5598  0.0215 -1.1742
   59POPC  C216 7854   0.357   6.285   4.000  0.2655  0.3374 -0.7848
   59POPC  H16R 7855   0.299   6.368   3.954  3.0474  2.6734 -0.3615
   59POPC  H16S 7856   0.356   6.195   3.935  0.1839  0.2881 -0.7154
   59POPC  C217 7857   0.501   6.334   4.025  0.2058  0.3214  0.3909
   59POPC  H17R 7858   0.569   6.252   4.057  0.8699  0.7398  0.0759
   59POPC  H17S 7859   0.492   6.410   4.107  0.7246  2.2694 -1.2695
   59POPC  C218 7860   0.555   6.404   3.899  0.5356  0.1486  0.1733
   59POPC  H18R 7861   0.571   6.345   3.806  3.6057  0.3574  0.4750
   59POPC  H18S 7862   0.650   6.454   3.926  0.6775 -0.7620  1.4355
   59POPC  H18T 7863   0.478   6.482   3.880  0.8868  0.7822  1.2781
   59POPC   C33 7864   0.422   6.319   5.215  0.3001 -0.0576  0.0703
   59POPC   H3X 7865   0.337   6.385   5.244 -1.6536 -2.4909  0.1958
   59POPC   H3Y 7866   0.410   6.285   5.110 -0.0959  0.0807  0.0705
   59POPC   C34 7867   0.551   6.407   5.226  0.1542  0.0338 -0.3200
   59POPC   H4X 7868   0.643   6.345   5.222 -0.4329 -0.8569 -0.3432
   59POPC   H4Y 7869   0.551   6.456   5.325 -2.4706 -0.8197  0.1925
   59POPC   C35 7870   0.560   6.507   5.106 -0.3106  0.3689  0.1562
   59POPC   H5X 7871   0.642   6.579   5.125  0.4326 -0.5747  0.6310
   59POPC   H5Y 7872   0.460   6.555   5.104 -0.4475  0.2198  1.7458
   59POPC   C36 7873   0.607   6.431   4.980  0.1640 -0.7982  0.3889
   59POPC   H6X 7874   0.527   6.357   4.958 -1.1555 -0.0036  2.2820
   59POPC   H6Y 7875   0.704   6.386   5.012  0.9783  0.6970  0.1167
   59POPC   C37 7876   0.631   6.516   4.856  0.6517  0.2230  0.2956
   59POPC   H7X 7877   0.656   6.462   4.762  0.2412 -0.5292  0.6048
   59POPC   H7Y 7878   0.708   6.592   4.881  1.8271 -1.0914  0.7819
   59POPC   C38 7879   0.506   6.597   4.816 -0.1344 -0.1548 -0.7724
   59POPC   H8X 7880   0.504   6.691   4.877 -2.2576  0.8143 -2.2123
   59POPC   H8Y 7881   0.412   6.552   4.855  1.2150 -0.4054  2.5700
   59POPC   C39 7882   0.514   6.641   4.672 -0.1108 -0.1638  0.3978
   59POPC   H9X 7883   0.507   6.563   4.593  0.1379  0.3030 -0.0858
   59POPC   H9Y 7884   0.616   6.680   4.649  0.5940 -1.6536  0.8484
   59POPC  C310 7885   0.417   6.751   4.631 -0.4235  0.5260 -0.0577
   59POPC  H10X 7886   0.434   6.827   4.711  3.9104  0.2897 -0.4922
   59POPC  H10Y 7887   0.314   6.712   4.642  0.0338 -1.3170 -1.8252
   59POPC  C311 7888   0.424   6.802   4.491  0.2637 -0.4380  0.5946
   59POPC  H11X 7889   0.530   6.828   4.470  0.3525 -1.3276 -0.0936
   59POPC  H11Y 7890   0.367   6.898   4.487 -0.4098 -0.8581 -2.6883
   59POPC  C312 7891   0.369   6.703   4.391 -0.2832 -0.2306 -0.0943
   59POPC  H12X 7892   0.265   6.674   4.417  0.2416 -3.2291 -1.0081
   59POPC  H12Y 7893   0.427   6.609   4.384 -1.6686 -1.2972  1.6999
   59POPC  C313 7894   0.358   6.761   4.255 -0.1050 -0.0615 -0.2039
   59POPC  H13X 7895   0.309   6.860   4.272  1.3220  0.5814  0.2830
   59POPC  H13Y 7896   0.295   6.699   4.188 -0.0802 -0.0535 -0.2348
   59POPC  C314 7897   0.495   6.789   4.189 -0.4716 -0.7445 -0.2346
   59POPC  H14X 7898   0.538   6.690   4.163 -1.0992 -1.1750  0.3618
   59POPC  H14Y 7899   0.548   6.845   4.270 -1.0438  0.3851 -0.6237
   59POPC  C315 7900   0.488   6.871   4.058  0.4456 -0.7284 -0.2153
   59POPC  H15X 7901   0.586   6.904   4.017  0.3651  1.1755  1.0156
   59POPC  H15Y 7902   0.438   6.968   4.076 -0.0114 -0.7859 -1.0785
   59POPC  C316 7903   0.426   6.799   3.938  0.2893 -0.8956  0.4463
   59POPC  H16X 7904   0.321   6.778   3.965 -0.2385 -1.1833 -1.6061
   59POPC  H16Y 7905   0.478   6.704   3.913  0.6700 -0.8918  1.2118
   59POPC  H16Z 7906   0.436   6.870   3.853  2.3138 -0.7892  0.7205
   60POPC     N 7907   6.065   5.646   6.289 -0.2284 -0.1365  0.7511
   60POPC   C12 7908   6.022   5.725   6.160 -0.2102 -0.5592 -0.0628
   60POPC  H12A 7909   6.084   5.813   6.162  0.6883 -1.1379  2.8158
   60POPC  H12B 7910   5.917   5.750   6.157 -0.2115 -0.6182 -0.7728
   60POPC   C13 7911   5.966   5.535   6.316 -0.4039 -0.2083 -0.2027
   60POPC  H13A 7912   5.867   5.567   6.288 -1.0479  0.6191  2.6494
   60POPC  H13B 7913   5.991   5.440   6.271 -0.8168 -1.0892  1.3668
   60POPC  H13C 7914   5.959   5.512   6.421  0.8639 -0.0010 -0.0550
   60POPC   C14 7915   6.206   5.593   6.272 -0.1948  0.5352 -0.2835
   60POPC  H14A 7916   6.210   5.526   6.188 -0.3521 -0.0265  0.1469
   60POPC  H14B 7917   6.278   5.672   6.255 -0.4740  0.8128 -0.1792
   60POPC  H14C 7918   6.227   5.535   6.361 -1.1761  1.7222  0.7733
   60POPC   C15 7919   6.047   5.746   6.404  0.3104 -1.0241  0.0275
   60POPC  H15A 7920   5.954   5.802   6.398 -0.3207 -1.9456  0.9679
   60POPC  H15B 7921   6.120   5.826   6.398 -1.4777  0.6782 -0.3457
   60POPC  H15C 7922   6.060   5.703   6.502 -1.1987 -1.4484  0.0648
   60POPC   C11 7923   6.038   5.650   6.021 -0.3888 -0.3876  0.1134
   60POPC  H11A 7924   5.996   5.704   5.934 -0.1019 -2.0345 -1.1093
   60POPC  H11B 7925   5.968   5.564   6.032 -0.3959 -0.5488 -1.0739
   60POPC     P 7926   6.281   5.708   5.948  0.0494  0.1530  0.4601
   60POPC   O13 7927   6.396   5.623   5.891  0.7837 -0.5927  0.3642
   60POPC   O14 7928   6.315   5.811   6.054 -0.4664  0.1419 -0.0905
   60POPC   O12 7929   6.171   5.611   5.996  0.5201  0.2293  0.5991
   60POPC   O11 7930   6.208   5.784   5.831 -0.7501 -0.4752 -0.2004
   60POPC    C1 7931   6.188   5.746   5.694 -0.3280  0.4572 -0.3390
   60POPC    HA 7932   6.248   5.657   5.665 -1.6579 -0.4315 -0.5105
   60POPC    HB 7933   6.223   5.830   5.631  4.4408 -1.5952 -0.8679
   60POPC    C2 7934   6.041   5.711   5.661 -0.0871 -0.0178  0.4030
   60POPC    HS 7935   6.010   5.627   5.726 -1.6034 -0.0557 -0.3220
   60POPC   O21 7936   6.043   5.674   5.521 -0.3686  0.1192 -0.0830
   60POPC   C21 7937   5.945   5.606   5.488 -0.8549  0.6787  0.0237
   60POPC   O22 7938   5.863   5.553   5.558  0.3597  0.4374 -0.4763
   60POPC   C22 7939   5.934   5.598   5.338 -0.1887 -0.2568 -0.5584
   60POPC   H2R 7940   6.007   5.521   5.304  2.5234  0.6863  2.6582
   60POPC   H2S 7941   5.951   5.698   5.294  1.0710 -0.2253 -0.0170
   60POPC    C3 7942   5.953   5.838   5.691 -0.3589 -0.1259  0.3577
   60POPC    HX 7943   5.960   5.869   5.797  4.7676 -0.2475  0.3052
   60POPC    HY 7944   5.845   5.820   5.673 -0.6010  1.1557  0.4547
   60POPC   O31 7945   6.004   5.950   5.617  0.1025 -0.4222  0.3497
   60POPC   C31 7946   5.935   5.975   5.502  0.4776  0.1042 -0.2795
   60POPC   O32 7947   5.841   5.907   5.459  0.1753 -0.4404 -0.1956
   60POPC   C32 7948   6.009   6.095   5.444  0.1039 -0.0114 -0.1908
   60POPC   H2X 7949   6.036   6.166   5.525 -1.4187  0.1466  0.2109
   60POPC   H2Y 7950   5.936   6.145   5.378 -0.0537  0.0822  0.0536
   60POPC   C23 7951   5.789   5.548   5.299 -0.0052 -0.7563 -0.5744
   60POPC   H3R 7952   5.716   5.630   5.320  1.6978  0.4902  0.7541
   60POPC   H3S 7953   5.756   5.461   5.359 -1.0261  0.4868  0.7493
   60POPC   C24 7954   5.769   5.497   5.155  0.2289 -0.4640 -0.1695
   60POPC   H4R 7955   5.662   5.468   5.148 -0.2217  0.9767  0.3554
   60POPC   H4S 7956   5.833   5.407   5.138 -0.7127 -1.3623  0.8872
   60POPC   C25 7957   5.787   5.609   5.048 -0.5322 -0.6553  0.0982
   60POPC   H5R 7958   5.742   5.706   5.079 -0.9503 -0.6021 -0.6280
   60POPC   H5S 7959   5.727   5.589   4.956  0.7008  2.5384 -1.5607
   60POPC   C26 7960   5.933   5.640   5.001  0.3897 -0.5143  0.0490
   60POPC   H6R 7961   5.977   5.561   4.937 -1.6413 -1.2174 -0.5598
   60POPC   H6S 7962   6.008   5.663   5.079  1.2073  0.5922 -1.0060
   60POPC   C27 7963   5.917   5.763   4.906 -0.0189 -0.4720  0.7355
   60POPC   H7R 7964   5.810   5.786   4.886  0.1464 -0.6365 -0.4125
   60POPC   H7S 7965   5.979   5.751   4.815  1.2011  2.2580  1.0931
   60POPC   C28 7966   5.951   5.892   4.989  0.0009 -0.7043  0.5496
   60POPC   H8R 7967   6.060   5.910   5.004  0.6287 -1.0545 -2.8554
   60POPC   H8S 7968   5.918   5.884   5.094  0.2718  1.7431  0.8899
   60POPC   C29 7969   5.881   6.011   4.930  0.1123 -0.8194  0.0774
   60POPC   H91 7970   5.794   6.045   4.988  0.9899  0.0618  0.9350
   60POPC  C210 7971   5.925   6.096   4.837 -0.0924 -0.5629  0.3299
   60POPC  H101 7972   5.861   6.179   4.803 -0.6084 -0.9443  0.3579
   60POPC  C211 7973   6.041   6.076   4.747  0.3673 -0.4315 -0.2257
   60POPC  H11R 7974   6.111   5.997   4.780  0.8631  0.6285  1.4114
   60POPC  H11S 7975   6.096   6.173   4.749 -0.0679 -0.1805 -0.3118
   60POPC  C212 7976   6.005   6.051   4.598 -0.3383  0.4757 -0.0497
   60POPC  H12R 7977   5.921   6.119   4.569  0.8071  2.8032  1.7211
   60POPC  H12S 7978   5.967   5.947   4.589 -1.3607  0.9585 -1.9365
   60POPC  C213 7979   6.128   6.074   4.503 -0.8178  0.4275  0.1881
   60POPC  H13R 7980   6.198   5.988   4.511 -1.4887 -0.2242 -0.8077
   60POPC  H13S 7981   6.182   6.163   4.542  2.3382 -1.4283  0.4321
   60POPC  C214 7982   6.084   6.092   4.356 -0.0415  0.6743  0.8398
   60POPC  H14R 7983   6.131   6.185   4.320  0.2940 -0.5900 -2.2307
   60POPC  H14S 7984   5.973   6.097   4.349 -0.1689  0.1143  2.1648
   60POPC  C215 7985   6.114   5.976   4.269 -0.4282 -0.3080  0.2095
   60POPC  H15R 7986   6.042   5.897   4.297  0.3125 -0.5864  1.4458
   60POPC  H15S 7987   6.216   5.938   4.294 -0.2356 -0.1835 -0.3808
   60POPC  C216 7988   6.096   6.002   4.120  0.2578  0.8726 -0.7328
   60POPC  H16R 7989   6.177   6.066   4.078  0.6049  1.9897  1.5269
   60POPC  H16S 7990   6.003   6.060   4.105 -1.8476 -1.9306  0.6093
   60POPC  C217 7991   6.076   5.877   4.026  0.8056 -0.0036 -0.4835
   60POPC  H17R 7992   5.984   5.832   4.070  3.3683 -3.9058  1.4693
   60POPC  H17S 7993   6.163   5.810   4.041  0.6763 -0.2979 -1.0412
   60POPC  C218 7994   6.055   5.906   3.878  0.1879  0.4941  0.4186
   60POPC  H18R 7995   5.968   5.969   3.853 -0.2619 -1.3349 -3.2177
   60POPC  H18S 7996   6.046   5.813   3.818  0.1226  1.2013 -0.6996
   60POPC  H18T 7997   6.147   5.953   3.838 -0.7236  1.5516 -0.5078
   60POPC   C33 7998   6.128   6.052   5.360 -0.7408 -1.0792 -1.5456
   60POPC   H3X 7999   6.099   5.994   5.269  1.6286 -1.6903 -1.9653
   60POPC   H3Y 8000   6.201   5.993   5.418  0.7073  2.5780  0.7313
   60POPC   C34 8001   6.197   6.180   5.302 -0.5340  0.4282 -0.4727
   60POPC   H4X 8002   6.217   6.258   5.378 -0.0268  0.5124 -0.6903
   60POPC   H4Y 8003   6.128   6.226   5.229  0.9040  1.6829 -1.0940
   60POPC   C35 8004   6.328   6.149   5.239 -0.0842 -0.0649  0.0029
   60POPC   H5X 8005   6.385   6.104   5.323 -3.1120  0.5541  2.5526
   60POPC   H5Y 8006   6.374   6.244   5.203  1.0243 -0.7648 -0.4945
   60POPC   C36 8007   6.326   6.060   5.108  0.4678 -0.1822 -0.0586
   60POPC   H6X 8008   6.250   6.100   5.038 -0.2034 -1.2023  0.0636
   60POPC   H6Y 8009   6.279   5.961   5.127 -2.7002  0.5754 -2.9325
   60POPC   C37 8010   6.461   6.025   5.036 -0.3651 -0.4562 -0.5811
   60POPC   H7X 8011   6.532   5.962   5.093 -0.1945  0.0257 -0.2510
   60POPC   H7Y 8012   6.519   6.120   5.036  0.7621 -1.0907 -2.2131
   60POPC   C38 8013   6.438   5.992   4.886  0.0006 -0.4550  0.6057
   60POPC   H8X 8014   6.528   6.022   4.828 -0.7717 -0.2917 -0.5413
   60POPC   H8Y 8015   6.347   6.043   4.847  0.5533 -0.2784 -0.5145
   60POPC   C39 8016   6.405   5.840   4.876  0.0029 -0.2165 -0.0430
   60POPC   H9X 8017   6.331   5.819   4.957 -0.2382 -0.7147 -0.3876
   60POPC   H9Y 8018   6.504   5.791   4.886  1.0173  1.5043 -1.1536
   60POPC  C310 8019   6.346   5.792   4.748 -0.3536 -0.0704 -0.4063
   60POPC  H10X 8020   6.421   5.788   4.666 -0.8832 -0.6131 -0.8750
   60POPC  H10Y 8021   6.280   5.876   4.717  0.7524  0.7834 -0.5044
   60POPC  C311 8022   6.266   5.663   4.757 -0.4821 -0.3570  0.2794
   60POPC  H11X 8023   6.191   5.667   4.839  1.4296  2.1613  2.0647
   60POPC  H11Y 8024   6.337   5.582   4.785  0.7587  0.0319 -1.5173
   60POPC  C312 8025   6.191   5.613   4.631  0.7034  0.1406  0.0988
   60POPC  H12X 8026   6.093   5.664   4.621 -0.0762 -1.4631 -0.9548
   60POPC  H12Y 8027   6.168   5.507   4.655  0.5447 -0.1447 -1.2017
   60POPC  C313 8028   6.272   5.622   4.502 -1.0765  0.7756 -0.4108
   60POPC  H13X 8029   6.369   5.573   4.524 -1.8062 -0.1788  0.8789
   60POPC  H13Y 8030   6.294   5.726   4.470  0.4884  0.0293 -1.9124
   60POPC  C314 8031   6.215   5.568   4.378 -0.4864  0.1220  0.4712
   60POPC  H14X 8032   6.215   5.457   4.372 -1.1074  0.0300  1.7182
   60POPC  H14Y 8033   6.286   5.603   4.301  0.9410 -0.1896  1.5961
   60POPC  C315 8034   6.074   5.616   4.350 -0.3781  0.3684 -0.5651
   60POPC  H15X 8035   6.061   5.724   4.373 -1.2774  0.1039  0.2374
   60POPC  H15Y 8036   6.006   5.559   4.417  1.6467 -1.3338  0.1498
   60POPC  C316 8037   6.030   5.598   4.205  0.4281  0.1866 -1.1660
   60POPC  H16X 8038   6.019   5.490   4.181  0.8369 -0.1139 -0.0787
   60POPC  H16Y 8039   6.104   5.640   4.134  0.3119  1.0255 -0.8028
   60POPC  H16Z 8040   5.932   5.651   4.195 -0.3703 -0.7114  1.2581
   61POPC     N 8041   3.291   3.169   2.357  0.0040  0.8564  0.1240
   61POPC   C12 8042   3.366   3.114   2.479  0.2206 -0.5520  0.0255
   61POPC  H12A 8043   3.462   3.081   2.442  1.6634  3.2242 -0.0113
   61POPC  H12B 8044   3.322   3.022   2.517 -2.9730  1.5702  1.9379
   61POPC   C13 8045   3.358   3.278   2.287 -0.0813 -0.0880  0.5016
   61POPC  H13A 8046   3.291   3.333   2.222  0.7676  0.2501 -0.1127
   61POPC  H13B 8047   3.404   3.348   2.356  0.5845 -0.5617  0.5500
   61POPC  H13C 8048   3.435   3.238   2.222  0.8374  1.2698  0.7060
   61POPC   C14 8049   3.269   3.054   2.266  0.3217 -0.0689 -0.3613
   61POPC  H14A 8050   3.361   3.021   2.219 -0.5953 -0.2524 -2.1200
   61POPC  H14B 8051   3.222   2.973   2.319  0.5577  0.2940  0.4108
   61POPC  H14C 8052   3.208   3.079   2.180  0.1522 -1.8003 -0.7781
   61POPC   C15 8053   3.152   3.209   2.412 -0.8348 -0.2706 -0.1560
   61POPC  H15A 8054   3.152   3.272   2.499 -1.6022 -0.2711 -0.1520
   61POPC  H15B 8055   3.112   3.120   2.457 -0.5112 -1.0954 -1.4154
   61POPC  H15C 8056   3.082   3.255   2.344 -0.9341 -0.9402 -0.5187
   61POPC   C11 8057   3.405   3.203   2.597  0.1607  0.0511 -0.0526
   61POPC  H11A 8058   3.431   3.146   2.688 -0.1241  0.5306  0.3361
   61POPC  H11B 8059   3.322   3.273   2.621  0.4331  1.1387 -2.0230
   61POPC     P 8060   3.655   3.232   2.545 -0.0190 -0.0379  0.0130
   61POPC   O13 8061   3.752   3.339   2.522 -0.2930  0.0779 -0.1114
   61POPC   O14 8062   3.652   3.126   2.446 -0.2730  0.6275  0.6523
   61POPC   O12 8063   3.509   3.288   2.558 -0.4429  0.5233 -0.4351
   61POPC   O11 8064   3.692   3.172   2.688 -0.4765  0.8710  0.0556
   61POPC    C1 8065   3.675   3.250   2.807  0.2954  0.2349 -0.0385
   61POPC    HA 8066   3.569   3.278   2.826  0.0981  0.2474 -1.0800
   61POPC    HB 8067   3.721   3.351   2.801 -2.0097  1.4347  1.1402
   61POPC    C2 8068   3.732   3.183   2.935 -0.1215 -0.4913  0.3335
   61POPC    HS 8069   3.738   3.074   2.916 -3.2673 -1.2119  2.5609
   61POPC   O21 8070   3.640   3.226   3.039  0.3641 -0.0321  0.5099
   61POPC   C21 8071   3.622   3.124   3.135 -0.0164 -0.4690 -0.4733
   61POPC   O22 8072   3.686   3.022   3.134  0.2553 -0.3325 -0.4977
   61POPC   C22 8073   3.519   3.170   3.236  0.5305  0.1763 -0.2104
   61POPC   H2R 8074   3.425   3.178   3.178 -0.6046  0.1303  1.5457
   61POPC   H2S 8075   3.558   3.270   3.265  0.0267 -0.1271  1.6710
   61POPC    C3 8076   3.877   3.222   2.965 -0.9283 -0.1460  0.1158
   61POPC    HX 8077   3.885   3.332   2.982  0.3308 -0.3863  1.3004
   61POPC    HY 8078   3.948   3.209   2.881  0.4961 -0.9493  1.4012
   61POPC   O31 8079   3.925   3.161   3.088  0.3635  0.4270 -0.1881
   61POPC   C31 8080   3.962   3.031   3.065 -0.3408  0.0324 -0.7917
   61POPC   O32 8081   3.946   2.980   2.958 -0.1105 -0.2456  0.1589
   61POPC   C32 8082   4.022   2.965   3.189  0.3665  0.5075  0.1412
   61POPC   H2X 8083   4.016   3.041   3.269  3.8465 -0.4050  1.4443
   61POPC   H2Y 8084   4.126   2.946   3.156  0.6764  2.2210  0.0736
   61POPC   C23 8085   3.512   3.068   3.357 -0.7381 -0.1243  0.7101
   61POPC   H3R 8086   3.612   3.022   3.373 -0.0708  1.2036  0.5247
   61POPC   H3S 8087   3.439   2.989   3.331 -1.1450  0.4311  0.1325
   61POPC   C24 8088   3.479   3.137   3.493 -0.9804 -0.0562  0.0175
   61POPC   H4R 8089   3.531   3.233   3.512 -0.0098 -0.8051  1.2623
   61POPC   H4S 8090   3.501   3.062   3.572  1.2535  0.7514  0.2355
   61POPC   C25 8091   3.332   3.184   3.487  0.1701 -0.3650 -0.9234
   61POPC   H5R 8092   3.269   3.096   3.460 -1.2518 -0.0534  1.1516
   61POPC   H5S 8093   3.314   3.273   3.424  0.0683  1.2384  1.2562
   61POPC   C26 8094   3.290   3.229   3.631  0.5509  0.0382 -0.4426
   61POPC   H6R 8095   3.365   3.309   3.647  0.2359  1.4165 -4.5459
   61POPC   H6S 8096   3.311   3.150   3.706  0.0244  2.1104  1.9854
   61POPC   C27 8097   3.150   3.293   3.660 -0.3179 -0.4432  1.2267
   61POPC   H7R 8098   3.098   3.217   3.722  1.4504 -1.9310  0.9884
   61POPC   H7S 8099   3.098   3.306   3.562 -0.6400 -1.5668  1.2311
   61POPC   C28 8100   3.152   3.424   3.737  0.0401 -0.2328 -0.7615
   61POPC   H8R 8101   3.178   3.395   3.841 -1.3270 -1.2813 -0.6787
   61POPC   H8S 8102   3.048   3.461   3.745 -0.4541 -1.9081  2.0363
   61POPC   C29 8103   3.239   3.536   3.683  0.1764 -0.6028  0.0518
   61POPC   H91 8104   3.336   3.511   3.636 -0.7848  0.7401 -2.8618
   61POPC  C210 8105   3.220   3.672   3.718  0.0801 -0.0535  0.4388
   61POPC  H101 8106   3.291   3.744   3.676  0.5029  0.1076  1.3879
   61POPC  C211 8107   3.119   3.733   3.809  0.7341 -0.1871 -0.3223
   61POPC  H11R 8108   3.162   3.821   3.861  0.9899 -0.1987 -0.5100
   61POPC  H11S 8109   3.102   3.655   3.887 -0.1819 -2.3116 -2.5252
   61POPC  C212 8110   2.985   3.767   3.743 -0.4201 -0.3476 -0.3704
   61POPC  H12R 8111   2.964   3.678   3.680 -0.8267 -2.7169  2.9045
   61POPC  H12S 8112   2.991   3.855   3.675  0.3398 -0.1714 -0.0859
   61POPC  C213 8113   2.879   3.800   3.850  0.6614 -0.8410  0.0399
   61POPC  H13R 8114   2.897   3.902   3.891  0.7079  0.1106 -2.2222
   61POPC  H13S 8115   2.883   3.723   3.930  2.1355 -1.3542 -0.4934
   61POPC  C214 8116   2.744   3.805   3.782 -0.0102 -0.2479  0.4712
   61POPC  H14R 8117   2.722   3.713   3.723 -2.1639  1.7884 -2.1198
   61POPC  H14S 8118   2.735   3.878   3.699  1.5933 -0.0242  0.4567
   61POPC  C215 8119   2.623   3.819   3.877 -0.1994 -0.2138  0.3732
   61POPC  H15R 8120   2.621   3.918   3.928 -2.8755 -0.2900  0.5512
   61POPC  H15S 8121   2.635   3.746   3.959 -0.1753 -1.1178 -0.4222
   61POPC  C216 8122   2.487   3.803   3.806  0.9170  0.9014  0.7732
   61POPC  H16R 8123   2.473   3.696   3.784  0.9568  0.7219  1.5688
   61POPC  H16S 8124   2.471   3.866   3.716  1.1264 -1.9031 -1.3651
   61POPC  C217 8125   2.358   3.826   3.889 -0.1539 -0.2791  0.2547
   61POPC  H17R 8126   2.370   3.770   3.984  0.4529  0.0183  0.3529
   61POPC  H17S 8127   2.262   3.803   3.839 -0.1943  1.7355 -0.7104
   61POPC  C218 8128   2.341   3.982   3.923  0.4810 -0.0070  0.2260
   61POPC  H18R 8129   2.351   4.048   3.834  2.5201 -0.1224  0.3042
   61POPC  H18S 8130   2.414   4.016   4.000 -0.1150  0.5025  0.5690
   61POPC  H18T 8131   2.242   4.003   3.967  0.9712  2.3272  0.3611
   61POPC   C33 8132   3.954   2.835   3.244 -0.1300 -0.7051  0.3061
   61POPC   H3X 8133   3.962   2.758   3.165 -1.0698 -0.0518 -0.4566
   61POPC   H3Y 8134   3.849   2.861   3.273  0.1444 -0.0746  0.7707
   61POPC   C34 8135   4.027   2.778   3.367 -0.1479 -1.2000  1.5009
   61POPC   H4X 8136   4.136   2.790   3.348 -0.6033 -0.9888 -1.4910
   61POPC   H4Y 8137   3.994   2.674   3.383 -1.6008 -1.1090 -0.5166
   61POPC   C35 8138   4.009   2.844   3.507  0.1790 -0.0035  0.5220
   61POPC   H5X 8139   4.036   2.952   3.517 -0.0416  0.1567 -0.5164
   61POPC   H5Y 8140   4.070   2.786   3.579  2.1286 -0.9558 -1.7466
   61POPC   C36 8141   3.869   2.834   3.561  0.5606  0.2094  0.5267
   61POPC   H6X 8142   3.842   2.728   3.576  1.0989 -0.4874 -2.7586
   61POPC   H6Y 8143   3.801   2.874   3.482  0.6483 -0.6163  0.0297
   61POPC   C37 8144   3.848   2.918   3.694 -0.6629 -0.7681  0.3279
   61POPC   H7X 8145   3.855   3.019   3.648 -2.5256 -0.3650  0.8092
   61POPC   H7Y 8146   3.933   2.905   3.763 -0.5624  0.0479  0.3685
   61POPC   C38 8147   3.717   2.886   3.765 -0.2423 -0.4145  0.9973
   61POPC   H8X 8148   3.718   2.784   3.808 -0.2093 -0.8373  0.0227
   61POPC   H8Y 8149   3.631   2.884   3.695 -0.8506  3.2613  1.4291
   61POPC   C39 8150   3.676   2.990   3.873  1.2322 -0.6350  0.3501
   61POPC   H9X 8151   3.719   3.090   3.851  2.3836 -0.7829  1.7863
   61POPC   H9Y 8152   3.720   2.947   3.966 -1.1139 -1.5805  1.1145
   61POPC  C310 8153   3.522   3.009   3.882 -0.0186  1.0272 -0.4374
   61POPC  H10X 8154   3.475   3.046   3.788 -0.0640 -1.1140 -1.3114
   61POPC  H10Y 8155   3.505   3.094   3.952 -0.6663  1.0078 -0.5668
   61POPC  C311 8156   3.440   2.892   3.939  0.3281  0.3965  0.2795
   61POPC  H11X 8157   3.487   2.855   4.033 -1.0134  0.1523  0.8782
   61POPC  H11Y 8158   3.437   2.808   3.867 -0.9929 -0.8136  1.6825
   61POPC  C312 8159   3.294   2.925   3.982 -0.1059  0.6212  0.4667
   61POPC  H12X 8160   3.244   2.984   3.902 -0.9610  0.5289  0.9251
   61POPC  H12Y 8161   3.286   2.989   4.072  0.0463 -1.9155  2.3661
   61POPC  C313 8162   3.202   2.804   4.007  0.0002  0.4612 -0.2668
   61POPC  H13X 8163   3.252   2.737   4.079  0.8033  2.6659  1.3340
   61POPC  H13Y 8164   3.183   2.746   3.914  0.3442  0.0202 -0.0669
   61POPC  C314 8165   3.057   2.844   4.055 -0.3443 -0.3705  0.1816
   61POPC  H14X 8166   2.999   2.871   3.965 -0.8246 -0.4363  0.4694
   61POPC  H14Y 8167   3.046   2.939   4.111 -0.6969  1.6653 -3.0702
   61POPC  C315 8168   2.994   2.734   4.138  0.3622 -0.3084 -0.1927
   61POPC  H15X 8169   3.060   2.703   4.222  1.4548  2.9122  0.2525
   61POPC  H15Y 8170   2.985   2.650   4.065  1.8151 -0.1123 -0.6381
   61POPC  C316 8171   2.850   2.769   4.178 -0.0412 -0.1865 -0.2781
   61POPC  H16X 8172   2.808   2.683   4.234 -2.2374  1.4866  0.8354
   61POPC  H16Y 8173   2.797   2.794   4.083  0.5067 -1.9599 -1.1021
   61POPC  H16Z 8174   2.846   2.858   4.244 -2.6162  0.5422 -1.2796
   62POPC     N 8175   3.196   2.621   2.178  0.6229 -0.6715 -0.0488
   62POPC   C12 8176   3.213   2.588   2.324  0.1495 -0.4095  0.2155
   62POPC  H12A 8177   3.287   2.510   2.334  2.1217  1.4934  1.3185
   62POPC  H12B 8178   3.123   2.543   2.362 -0.7580  0.5697 -0.6982
   62POPC   C13 8179   3.204   2.493   2.094  0.0214  0.7176 -0.5265
   62POPC  H13A 8180   3.303   2.451   2.106 -0.2640  0.5446  1.4738
   62POPC  H13B 8181   3.132   2.424   2.134  0.3805 -0.5928 -2.0459
   62POPC  H13C 8182   3.193   2.520   1.990 -0.8155 -1.8348 -1.1535
   62POPC   C14 8183   3.066   2.691   2.149  0.7384  0.3916 -0.6096
   62POPC  H14A 8184   3.066   2.706   2.042  2.1349 -1.5194 -0.9282
   62POPC  H14B 8185   2.978   2.638   2.183 -0.0059  1.6906 -0.4316
   62POPC  H14C 8186   3.057   2.787   2.198 -2.4214  0.3622 -0.8960
   62POPC   C15 8187   3.314   2.713   2.140  0.2556  1.0418  0.6588
   62POPC  H15A 8188   3.308   2.735   2.035  0.0073 -3.6313 -0.4975
   62POPC  H15B 8189   3.408   2.661   2.152 -0.6789 -0.4781  1.8340
   62POPC  H15C 8190   3.305   2.803   2.200 -1.2592  0.5170  1.2737
   62POPC   C11 8191   3.252   2.702   2.420 -0.7750  0.0145  0.0296
   62POPC  H11A 8192   3.344   2.756   2.391 -0.4093  0.5526  2.0412
   62POPC  H11B 8193   3.276   2.665   2.522 -1.4895  2.0479  0.9832
   62POPC     P 8194   3.070   2.845   2.532  0.2356  0.1516 -0.2807
   62POPC   O13 8195   2.975   2.733   2.567 -0.3501 -0.0664 -0.3010
   62POPC   O14 8196   3.012   2.980   2.516  0.1392  0.0626 -0.3450
   62POPC   O12 8197   3.156   2.802   2.412  0.6350  0.6309 -0.1241
   62POPC   O11 8198   3.178   2.860   2.643 -0.6146  0.5333 -0.2410
   62POPC    C1 8199   3.186   2.956   2.748 -0.4395  0.2467  0.0367
   62POPC    HA 8200   3.145   3.055   2.721 -0.2784  0.3673  0.2349
   62POPC    HB 8201   3.293   2.963   2.777 -0.3626 -1.4482  0.2897
   62POPC    C2 8202   3.111   2.892   2.870  0.4401 -0.7907 -0.4661
   62POPC    HS 8203   3.007   2.871   2.837 -0.3647  0.4714  1.1356
   62POPC   O21 8204   3.116   2.986   2.987 -0.4400 -0.2813 -0.2471
   62POPC   C21 8205   3.022   3.078   2.982 -0.1005  0.1639 -0.1060
   62POPC   O22 8206   2.937   3.085   2.892  0.0902  0.2428  0.5692
   62POPC   C22 8207   3.040   3.176   3.104  0.3785  0.0192  0.2981
   62POPC   H2R 8208   2.946   3.235   3.099 -0.8028 -1.9108 -2.6484
   62POPC   H2S 8209   3.133   3.235   3.092  0.0125  0.1464 -2.4405
   62POPC    C3 8210   3.166   2.756   2.915 -0.1173  0.4114 -0.6756
   62POPC    HX 8211   3.271   2.777   2.945  0.4073  1.1458 -2.8926
   62POPC    HY 8212   3.166   2.692   2.824 -3.2974  0.1377 -0.6179
   62POPC   O31 8213   3.077   2.698   3.021 -0.4024 -0.1560  0.4207
   62POPC   C31 8214   3.055   2.566   2.992 -0.2671  0.2565 -0.9058
   62POPC   O32 8215   3.098   2.497   2.900 -0.1977 -0.0765 -0.1130
   62POPC   C32 8216   2.981   2.511   3.120  0.1020  0.8062 -0.2432
   62POPC   H2X 8217   2.888   2.566   3.146  1.1206  2.1672  0.6669
   62POPC   H2Y 8218   3.055   2.534   3.200  2.0478 -1.2180 -1.3407
   62POPC   C23 8219   3.032   3.100   3.240  0.0231 -0.1345 -0.3673
   62POPC   H3R 8220   3.046   3.174   3.322  0.2562 -1.6377  1.0030
   62POPC   H3S 8221   3.117   3.030   3.254  0.7734  1.1428  2.0113
   62POPC   C24 8222   2.892   3.038   3.264  0.5925  0.3755 -0.2505
   62POPC   H4R 8223   2.875   2.967   3.181 -1.4831 -0.1994  0.6104
   62POPC   H4S 8224   2.817   3.119   3.255 -0.9656 -1.0032 -0.0974
   62POPC   C25 8225   2.881   2.964   3.398 -0.4383 -0.3637  0.3030
   62POPC   H5R 8226   2.940   2.871   3.397 -1.3571 -0.9619  0.5880
   62POPC   H5S 8227   2.776   2.931   3.412 -0.0169 -1.4141  1.0375
   62POPC   C26 8228   2.914   3.052   3.520  0.9053 -0.3463 -0.1089
   62POPC   H6R 8229   2.870   3.153   3.505 -1.3579 -1.1611  0.6811
   62POPC   H6S 8230   3.024   3.066   3.518  0.7208  1.1492 -0.7119
   62POPC   C27 8231   2.887   2.983   3.657  0.5128  0.3932 -0.2764
   62POPC   H7R 8232   2.970   3.005   3.728  0.2175 -0.8835  0.4825
   62POPC   H7S 8233   2.886   2.876   3.628  1.9862  0.6082 -1.2281
   62POPC   C28 8234   2.755   3.027   3.713  0.4709 -0.3789 -0.2797
   62POPC   H8R 8235   2.734   2.955   3.795 -2.0070  0.1735 -0.3567
   62POPC   H8S 8236   2.694   2.999   3.624 -0.3876  1.0449 -0.1523
   62POPC   C29 8237   2.732   3.173   3.751 -0.3142 -0.5473  0.1641
   62POPC   H91 8238   2.642   3.223   3.713 -0.8109 -0.4835  1.3876
   62POPC  C210 8239   2.805   3.225   3.850  0.1946 -0.4305  0.5266
   62POPC  H101 8240   2.789   3.331   3.873 -2.4524  0.0886 -2.9112
   62POPC  C211 8241   2.892   3.161   3.947  0.2758 -0.0072 -0.7851
   62POPC  H11R 8242   2.997   3.190   3.923  0.1987  1.4158  0.4944
   62POPC  H11S 8243   2.896   3.050   3.943  1.8790  0.0167 -0.5426
   62POPC  C212 8244   2.858   3.185   4.096  0.4725  0.4675 -0.1280
   62POPC  H12R 8245   2.925   3.114   4.150  0.7331  0.6091 -0.2647
   62POPC  H12S 8246   2.751   3.163   4.118 -0.4011  2.2119 -2.3011
   62POPC  C213 8247   2.886   3.326   4.145  0.0113  0.0746 -0.2249
   62POPC  H13R 8248   2.820   3.406   4.107  0.3707 -0.1295 -1.3344
   62POPC  H13S 8249   2.986   3.348   4.101  0.2101 -0.5012 -0.0721
   62POPC  C214 8250   2.881   3.337   4.297 -0.0442 -0.7932 -0.1089
   62POPC  H14R 8251   2.913   3.249   4.358  0.6621 -0.0995  0.5419
   62POPC  H14S 8252   2.775   3.353   4.327 -0.0343  2.6536 -1.5453
   62POPC  C215 8253   2.969   3.454   4.345 -0.1069  0.6505  0.2795
   62POPC  H15R 8254   2.931   3.550   4.304  1.0965  0.6620 -0.8652
   62POPC  H15S 8255   3.075   3.436   4.317  0.0434 -1.5161  1.9774
   62POPC  C216 8256   2.960   3.457   4.506 -0.0669  0.0020  0.0378
   62POPC  H16R 8257   3.043   3.519   4.547 -1.3464  1.5471  0.3824
   62POPC  H16S 8258   2.981   3.357   4.550  3.0548  0.1159 -0.9403
   62POPC  C217 8259   2.828   3.502   4.564 -0.4128 -0.1041  0.4227
   62POPC  H17R 8260   2.829   3.505   4.675 -3.0990 -1.0753  0.5676
   62POPC  H17S 8261   2.747   3.427   4.546 -2.2261  1.3584  2.0556
   62POPC  C218 8262   2.792   3.635   4.502 -0.2100 -0.4907  0.5227
   62POPC  H18R 8263   2.876   3.705   4.521  0.2924 -0.9346 -0.0232
   62POPC  H18S 8264   2.693   3.660   4.545  0.9661  1.3300  2.3742
   62POPC  H18T 8265   2.775   3.622   4.393  1.9899 -1.4919  0.2424
   62POPC   C33 8266   2.954   2.357   3.113  0.0712  0.4239 -0.9229
   62POPC   H3X 8267   3.033   2.308   3.052  0.9471  0.5281  0.1101
   62POPC   H3Y 8268   2.858   2.343   3.057 -1.7390 -0.2613  2.1224
   62POPC   C34 8269   2.937   2.302   3.258  0.0176 -0.1775  0.2876
   62POPC   H4X 8270   2.834   2.323   3.295 -0.1582 -0.4093 -0.0664
   62POPC   H4Y 8271   3.015   2.344   3.325 -0.0810  0.7138 -0.1454
   62POPC   C35 8272   2.950   2.149   3.251  0.2540 -0.1168  0.4425
   62POPC   H5X 8273   3.050   2.139   3.203 -0.0714 -0.0802 -0.2504
   62POPC   H5Y 8274   2.877   2.118   3.173  0.4985  3.5896 -1.4576
   62POPC   C36 8275   2.951   2.087   3.388  0.0833 -0.4084 -0.0275
   62POPC   H6X 8276   2.856   2.105   3.443  1.0035 -2.2669  2.3445
   62POPC   H6Y 8277   3.031   2.136   3.448 -2.2885  0.3886  2.7169
   62POPC   C37 8278   2.991   1.936   3.378  0.2568 -0.1681 -0.3845
   62POPC   H7X 8279   3.089   1.929   3.326 -0.5376 -3.0884 -1.6781
   62POPC   H7Y 8280   2.920   1.880   3.315 -0.9650  0.5205  0.3415
   62POPC   C38 8281   3.007   1.868   3.513 -0.0465 -0.9721  0.1522
   62POPC   H8X 8282   2.910   1.850   3.563 -1.9101  2.8657 -1.6710
   62POPC   H8Y 8283   3.065   1.937   3.579  1.5682  0.0634 -2.1889
   62POPC   C39 8284   3.077   1.734   3.496  0.0902 -0.3950  0.3156
   62POPC   H9X 8285   3.172   1.773   3.456  0.8672 -1.0100  1.5027
   62POPC   H9Y 8286   3.021   1.674   3.421 -0.7372  1.4270 -0.5718
   62POPC  C310 8287   3.125   1.657   3.622  0.3058 -0.1715  0.1250
   62POPC  H10X 8288   3.164   1.730   3.696 -0.3533  0.5496 -0.2177
   62POPC  H10Y 8289   3.208   1.595   3.582 -0.1212 -0.5400 -0.2113
   62POPC  C311 8290   3.024   1.564   3.692 -0.2804  0.5060  0.2642
   62POPC  H11X 8291   3.015   1.483   3.616  2.8418 -0.4649  0.7872
   62POPC  H11Y 8292   2.921   1.604   3.701 -0.8066 -0.2571 -1.7690
   62POPC  C312 8293   3.078   1.521   3.833  0.4581  0.2669  0.1249
   62POPC  H12X 8294   3.094   1.611   3.896 -0.9835  0.6512 -0.0248
   62POPC  H12Y 8295   3.177   1.471   3.827 -0.0694 -0.6362 -2.5745
   62POPC  C313 8296   2.980   1.431   3.906  0.4507  1.0417 -0.3315
   62POPC  H13X 8297   2.939   1.352   3.840  0.5608  1.9806 -1.5739
   62POPC  H13Y 8298   2.891   1.492   3.934 -1.1554 -1.1610 -0.3533
   62POPC  C314 8299   3.038   1.374   4.033 -0.2804  0.3831 -0.1139
   62POPC  H14X 8300   3.086   1.449   4.100  0.4911 -2.2201  2.4598
   62POPC  H14Y 8301   3.117   1.299   4.015  0.2708  0.6594  1.0354
   62POPC  C315 8302   2.943   1.294   4.114 -0.3895  0.3311 -0.3074
   62POPC  H15X 8303   2.852   1.353   4.138  1.4755  3.0041  0.6512
   62POPC  H15Y 8304   2.984   1.262   4.212 -1.2618  0.1892  0.0258
   62POPC  C316 8305   2.897   1.164   4.049  0.2030 -0.0368 -0.2380
   62POPC  H16X 8306   2.854   1.174   3.947  0.3346  2.8606 -0.0918
   62POPC  H16Y 8307   2.831   1.114   4.123 -0.8910 -2.1454 -2.5031
   62POPC  H16Z 8308   2.982   1.098   4.024  0.7117  0.0939  1.0873
   63POPC     N 8309   2.743   3.801   2.280  0.2470 -0.1925  0.4400
   63POPC   C12 8310   2.672   3.790   2.419  0.3782  0.0487  0.4445
   63POPC  H12A 8311   2.715   3.867   2.481  1.1182  0.6622 -0.8014
   63POPC  H12B 8312   2.712   3.700   2.462 -0.0471  0.1269  1.0150
   63POPC   C13 8313   2.721   3.671   2.207  0.6628  0.4455 -0.5025
   63POPC  H13A 8314   2.745   3.584   2.266 -1.2617  0.0706 -0.2164
   63POPC  H13B 8315   2.617   3.656   2.182  0.7370  0.6711 -0.9560
   63POPC  H13C 8316   2.779   3.664   2.116  0.9496  3.7950 -0.7172
   63POPC   C14 8317   2.682   3.904   2.192  0.1622  0.9545 -0.6433
   63POPC  H14A 8318   2.578   3.880   2.178 -0.2485  2.7946 -0.9786
   63POPC  H14B 8319   2.691   4.002   2.237 -2.2883  1.1690 -0.4619
   63POPC  H14C 8320   2.724   3.904   2.093  1.7633  0.1293  0.0000
   63POPC   C15 8321   2.889   3.827   2.303  0.4476  0.2013 -0.4263
   63POPC  H15A 8322   2.906   3.932   2.316 -1.6389  0.6789 -1.0894
   63POPC  H15B 8323   2.947   3.798   2.217 -0.1283  0.3987 -0.8892
   63POPC  H15C 8324   2.925   3.771   2.389  1.1755  1.9837  0.4665
   63POPC   C11 8325   2.512   3.789   2.426  0.7545 -0.5112 -0.1909
   63POPC  H11A 8326   2.482   3.881   2.371  1.9020 -0.9143 -1.5088
   63POPC  H11B 8327   2.478   3.812   2.530  0.5029  2.0251 -0.7517
   63POPC     P 8328   2.476   3.532   2.436  0.1850  0.3010 -0.0928
   63POPC   O13 8329   2.582   3.535   2.541 -0.5722 -0.2636 -0.8549
   63POPC   O14 8330   2.491   3.431   2.327 -0.2360 -0.1450 -0.2927
   63POPC   O12 8331   2.450   3.671   2.376  0.4013 -0.3957  0.9009
   63POPC   O11 8332   2.335   3.503   2.509  0.4985 -0.1823 -0.0122
   63POPC    C1 8333   2.313   3.548   2.640 -0.1177  0.1585  0.2715
   63POPC    HA 8334   2.202   3.557   2.642 -0.2380 -0.5153 -1.4174
   63POPC    HB 8335   2.349   3.650   2.662  1.8386 -0.6132  0.8093
   63POPC    C2 8336   2.362   3.441   2.747  0.3434  0.0003 -0.3593
   63POPC    HS 8337   2.468   3.413   2.728  1.7591  3.9706  0.6583
   63POPC   O21 8338   2.282   3.326   2.750  0.4723  0.1128  0.0846
   63POPC   C21 8339   2.325   3.220   2.825 -0.1778  0.5063 -0.0163
   63POPC   O22 8340   2.434   3.204   2.872 -0.3499  0.1885 -0.3097
   63POPC   C22 8341   2.213   3.110   2.824 -0.6625 -0.1324  0.1050
   63POPC   H2R 8342   2.261   3.010   2.823 -1.3060 -0.4510  0.3153
   63POPC   H2S 8343   2.152   3.132   2.734 -1.4054  0.6576  0.7901
   63POPC    C3 8344   2.372   3.506   2.890  0.3775  0.4135  0.5026
   63POPC    HX 8345   2.422   3.602   2.865  1.2925 -0.4034 -0.9158
   63POPC    HY 8346   2.445   3.446   2.948  1.9541  1.7624 -0.0122
   63POPC   O31 8347   2.244   3.524   2.953  0.2156 -0.2655  0.2064
   63POPC   C31 8348   2.188   3.644   2.947 -0.1638  0.4625  0.7963
   63POPC   O32 8349   2.237   3.748   2.909  0.6740  0.6899 -0.2994
   63POPC   C32 8350   2.054   3.632   3.011  1.0256  0.9295  0.5302
   63POPC   H2X 8351   2.022   3.526   3.017  2.9538  0.3210  0.6242
   63POPC   H2Y 8352   1.992   3.685   2.935 -1.5816 -0.8038  1.3109
   63POPC   C23 8353   2.115   3.119   2.944  0.2364  0.3185  0.1041
   63POPC   H3R 8354   2.031   3.049   2.925  1.5917 -0.5156 -3.9197
   63POPC   H3S 8355   2.076   3.223   2.944 -0.5501  0.0258  0.2892
   63POPC   C24 8356   2.184   3.069   3.072 -0.7226 -0.3712  0.0604
   63POPC   H4R 8357   2.275   3.010   3.051 -0.4278  0.3510 -0.7365
   63POPC   H4S 8358   2.106   3.004   3.117  0.5141 -1.9891 -0.0582
   63POPC   C25 8359   2.215   3.185   3.161  0.5044 -0.2634 -0.1600
   63POPC   H5R 8360   2.119   3.235   3.183  1.4055  1.3894  0.1889
   63POPC   H5S 8361   2.280   3.254   3.104  1.3411 -0.0007  1.0656
   63POPC   C26 8362   2.278   3.131   3.285 -0.1141 -0.0896 -0.5942
   63POPC   H6R 8363   2.217   3.047   3.323 -0.9093  0.1654 -1.2852
   63POPC   H6S 8364   2.290   3.209   3.363 -0.5625 -2.1976  1.7026
   63POPC   C27 8365   2.417   3.068   3.275 -0.3289  0.0879  0.0757
   63POPC   H7R 8366   2.489   3.143   3.235 -1.5088  0.3018 -1.7710
   63POPC   H7S 8367   2.424   2.981   3.206  1.4657  0.8159 -0.7277
   63POPC   C28 8368   2.474   3.025   3.404 -0.3872 -0.9567  0.2123
   63POPC   H8R 8369   2.477   3.118   3.466 -1.1831 -1.0899  0.4702
   63POPC   H8S 8370   2.582   3.004   3.388 -0.5120 -0.9400 -0.7115
   63POPC   C29 8371   2.401   2.909   3.475  0.2067 -0.1055  0.0875
   63POPC   H91 8372   2.421   2.808   3.436  0.5295 -1.7480  4.0039
   63POPC  C210 8373   2.338   2.923   3.590 -0.1420 -0.0563  0.4467
   63POPC  H101 8374   2.307   2.831   3.642  0.4280 -0.5104  0.0018
   63POPC  C211 8375   2.307   3.046   3.669  0.2660 -0.3062 -0.1113
   63POPC  H11R 8376   2.199   3.030   3.689  0.0655  1.2140  0.1344
   63POPC  H11S 8377   2.308   3.135   3.603 -0.8035  0.1005  0.3902
   63POPC  C212 8378   2.365   3.076   3.811 -0.2392 -0.4117  0.2327
   63POPC  H12R 8379   2.474   3.063   3.794 -0.5353 -1.9268 -0.6866
   63POPC  H12S 8380   2.337   2.999   3.885 -2.1983 -0.0923 -0.1134
   63POPC  C213 8381   2.347   3.215   3.872  0.8979 -1.1470 -0.0313
   63POPC  H13R 8382   2.240   3.243   3.877  0.8655 -1.0157 -1.2107
   63POPC  H13S 8383   2.390   3.288   3.801 -1.0105 -0.0401 -0.1203
   63POPC  C214 8384   2.407   3.235   4.015 -0.2473 -0.5206  0.9632
   63POPC  H14R 8385   2.516   3.213   4.015 -0.3928 -1.6406  3.3979
   63POPC  H14S 8386   2.360   3.148   4.065 -0.6112 -0.4995  0.6599
   63POPC  C215 8387   2.380   3.369   4.086 -0.0823  0.0103 -0.2139
   63POPC  H15R 8388   2.270   3.380   4.088 -0.2237 -1.3395  0.3228
   63POPC  H15S 8389   2.428   3.453   4.031  1.7447 -1.3930 -0.8615
   63POPC  C216 8390   2.419   3.375   4.238 -0.3857  0.2448  0.1773
   63POPC  H16R 8391   2.430   3.480   4.272  3.8455 -0.3043  0.9720
   63POPC  H16S 8392   2.518   3.326   4.232 -1.3397 -1.7606  0.0417
   63POPC  C217 8393   2.326   3.298   4.334  0.9862 -0.6744 -0.2237
   63POPC  H17R 8394   2.331   3.193   4.297  0.6632 -0.2328 -1.5676
   63POPC  H17S 8395   2.219   3.327   4.343  1.3440  0.4282  0.7685
   63POPC  C218 8396   2.389   3.294   4.471 -0.0525 -0.2693  0.1028
   63POPC  H18R 8397   2.346   3.210   4.529 -1.2698  0.6850  0.6460
   63POPC  H18S 8398   2.372   3.389   4.526  1.0626  0.3811 -0.6436
   63POPC  H18T 8399   2.500   3.287   4.470 -0.0771 -1.1520 -2.0094
   63POPC   C33 8400   2.049   3.700   3.149  0.6836 -0.1151  0.7709
   63POPC   H3X 8401   1.945   3.733   3.172  1.0333  0.8936  0.9699
   63POPC   H3Y 8402   2.122   3.784   3.152  0.9592 -0.3269  0.0985
   63POPC   C34 8403   2.102   3.606   3.262  0.2035 -0.0047  0.5680
   63POPC   H4X 8404   2.190   3.546   3.230  0.4645  1.1396 -0.9614
   63POPC   H4Y 8405   2.015   3.540   3.279 -0.8951  0.9598 -1.0844
   63POPC   C35 8406   2.160   3.676   3.388 -0.0505  0.3969  0.0996
   63POPC   H5X 8407   2.072   3.698   3.452  1.1991 -0.8560  2.4067
   63POPC   H5Y 8408   2.208   3.772   3.360 -2.5598  1.7437  0.1543
   63POPC   C36 8409   2.246   3.575   3.471  0.3983  0.2080 -0.4048
   63POPC   H6X 8410   2.227   3.467   3.449  0.9033  0.2552 -1.0977
   63POPC   H6Y 8411   2.220   3.593   3.578  1.6972  1.5495 -0.2819
   63POPC   C37 8412   2.395   3.602   3.458  0.6761  0.3053  0.6874
   63POPC   H7X 8413   2.430   3.686   3.522  1.7339  0.3344  0.0896
   63POPC   H7Y 8414   2.410   3.621   3.350  1.3105  0.6742  0.8383
   63POPC   C38 8415   2.485   3.479   3.500  0.3266  0.5269  0.6432
   63POPC   H8X 8416   2.466   3.391   3.436 -0.9060  0.6438  0.8195
   63POPC   H8Y 8417   2.458   3.449   3.603  0.3766 -2.5598 -0.1538
   63POPC   C39 8418   2.633   3.507   3.507 -0.0286  0.1394 -0.0972
   63POPC   H9X 8419   2.668   3.423   3.570  0.0151  0.4737  0.3306
   63POPC   H9Y 8420   2.660   3.596   3.569  1.5331 -0.2765 -0.1347
   63POPC  C310 8421   2.723   3.505   3.383 -0.4884 -0.3596 -0.5113
   63POPC  H10X 8422   2.699   3.592   3.318 -2.8968 -1.0960 -0.7024
   63POPC  H10Y 8423   2.689   3.418   3.323 -1.9568 -1.0151  1.2078
   63POPC  C311 8424   2.873   3.504   3.408  0.2254  1.1241 -0.6184
   63POPC  H11X 8425   2.902   3.411   3.463 -2.0981 -0.3442 -1.7004
   63POPC  H11Y 8426   2.911   3.588   3.470  1.3799 -1.1667  2.0427
   63POPC  C312 8427   2.944   3.505   3.276 -0.1850  0.0641 -0.2647
   63POPC  H12X 8428   2.944   3.604   3.226 -0.9510  0.2671  0.1231
   63POPC  H12Y 8429   2.917   3.427   3.202 -1.8671  0.7402 -0.4075
   63POPC  C313 8430   3.094   3.498   3.317  0.1930  0.9266  0.0374
   63POPC  H13X 8431   3.116   3.398   3.360  0.7964  1.0456  0.0146
   63POPC  H13Y 8432   3.119   3.576   3.392  0.2226 -1.0926  2.2467
   63POPC  C314 8433   3.196   3.520   3.202 -0.2245  0.5561 -0.2227
   63POPC  H14X 8434   3.158   3.618   3.166 -1.5685  1.1811  2.6300
   63POPC  H14Y 8435   3.198   3.443   3.122  1.5752 -1.5590  1.7370
   63POPC  C315 8436   3.343   3.536   3.249 -0.8818 -0.3374  0.1112
   63POPC  H15X 8437   3.372   3.444   3.304 -0.6680  0.2139  0.9541
   63POPC  H15Y 8438   3.343   3.622   3.320 -1.9523 -0.9125  0.8444
   63POPC  C316 8439   3.443   3.562   3.134  0.6033 -0.1922  0.4931
   63POPC  H16X 8440   3.445   3.476   3.065 -0.1548  0.0725  0.1209
   63POPC  H16Y 8441   3.544   3.582   3.176 -1.0961  4.5879  3.1695
   63POPC  H16Z 8442   3.407   3.651   3.078  1.0903 -1.5913 -2.1825
   64POPC     N 8443   3.889   2.871   2.626 -0.3760  0.5109 -0.3448
   64POPC   C12 8444   3.797   2.858   2.740 -0.3259  0.7643 -0.0001
   64POPC  H12A 8445   3.717   2.930   2.729  0.1650  1.1643 -1.2015
   64POPC  H12B 8446   3.854   2.894   2.824 -0.4205  1.6338 -0.2900
   64POPC   C13 8447   3.947   3.010   2.630 -0.0614  0.1406  1.0866
   64POPC  H13A 8448   3.867   3.082   2.641  0.3049  1.0642 -1.7166
   64POPC  H13B 8449   4.020   3.013   2.710  0.2776 -0.3664  0.7925
   64POPC  H13C 8450   4.000   3.039   2.541 -0.7679 -2.5907 -0.3138
   64POPC   C14 8451   4.005   2.779   2.627  0.1738 -0.1929 -0.1731
   64POPC  H14A 8452   3.970   2.680   2.599 -0.5389 -0.0016  0.0144
   64POPC  H14B 8453   4.081   2.799   2.553  0.8514  1.0922  0.8379
   64POPC  H14C 8454   4.061   2.779   2.719 -0.8744  0.8570  0.4979
   64POPC   C15 8455   3.820   2.856   2.498 -0.1070 -0.0790  0.4501
   64POPC  H15A 8456   3.770   2.761   2.502  0.3643 -0.3741 -0.3719
   64POPC  H15B 8457   3.884   2.862   2.411 -1.1278 -0.8307 -0.3765
   64POPC  H15C 8458   3.748   2.936   2.484  1.4359  1.1149 -1.1315
   64POPC   C11 8459   3.744   2.714   2.762  0.8854 -0.2003 -0.1909
   64POPC  H11A 8460   3.673   2.738   2.843 -0.9440  0.3080 -1.8790
   64POPC  H11B 8461   3.820   2.642   2.800  0.2704  0.3613  2.2522
   64POPC     P 8462   3.641   2.511   2.655  0.2012 -0.0236  0.1218
   64POPC   O13 8463   3.775   2.460   2.624  0.2318  0.0614 -0.2809
   64POPC   O14 8464   3.531   2.476   2.556  0.0897 -0.7211 -0.3498
   64POPC   O12 8465   3.658   2.668   2.657 -0.4200 -0.1993  0.5575
   64POPC   O11 8466   3.591   2.466   2.801  1.1623 -0.3787  0.2103
   64POPC    C1 8467   3.458   2.514   2.836  0.1076  0.3013  0.2233
   64POPC    HA 8468   3.377   2.479   2.768  0.7412  2.6445 -1.8460
   64POPC    HB 8469   3.447   2.624   2.836 -1.2873  0.1822  0.6264
   64POPC    C2 8470   3.414   2.477   2.984 -0.0886 -0.1573  0.3569
   64POPC    HS 8471   3.332   2.532   3.035 -1.7340 -2.4549  0.3892
   64POPC   O21 8472   3.533   2.484   3.067  0.9795 -0.4657 -0.3377
   64POPC   C21 8473   3.551   2.605   3.125 -0.7530  0.2342 -0.1433
   64POPC   O22 8474   3.497   2.708   3.095  0.5773  0.2155 -0.2351
   64POPC   C22 8475   3.649   2.586   3.241  0.2734 -0.1870 -0.4738
   64POPC   H2R 8476   3.752   2.613   3.212  0.4122  0.7964  0.8351
   64POPC   H2S 8477   3.663   2.478   3.267  2.5352  0.3696  0.9555
   64POPC    C3 8478   3.359   2.332   2.994 -0.3449  0.7214  0.0432
   64POPC    HX 8479   3.444   2.267   2.965 -1.1099 -0.7825  1.0388
   64POPC    HY 8480   3.282   2.311   2.916 -0.2832  0.4658  0.0518
   64POPC   O31 8481   3.312   2.309   3.126  0.0276 -0.3177 -0.8691
   64POPC   C31 8482   3.338   2.193   3.180 -0.7412 -0.0657 -0.0504
   64POPC   O32 8483   3.399   2.100   3.130 -0.0241  0.4236  0.0272
   64POPC   C32 8484   3.304   2.205   3.333 -0.5999  0.1105 -0.0955
   64POPC   H2X 8485   3.198   2.238   3.341 -0.4200  0.4875  0.8151
   64POPC   H2Y 8486   3.370   2.288   3.366 -0.2858  0.2898 -1.1225
   64POPC   C23 8487   3.600   2.669   3.360 -0.5901  0.0489 -0.1654
   64POPC   H3R 8488   3.602   2.779   3.344  2.7804  0.1767  0.4532
   64POPC   H3S 8489   3.681   2.644   3.431 -1.5343 -0.4653  0.7583
   64POPC   C24 8490   3.468   2.620   3.414  0.5514  0.9580  0.2394
   64POPC   H4R 8491   3.491   2.518   3.451  0.6751  0.2745 -1.6470
   64POPC   H4S 8492   3.395   2.608   3.332  0.5948  1.2423  0.1570
   64POPC   C25 8493   3.417   2.705   3.529 -0.4348  0.4277  0.0690
   64POPC   H5R 8494   3.407   2.812   3.500 -1.2299  0.4189  0.2825
   64POPC   H5S 8495   3.496   2.708   3.606 -1.2320 -0.3975  0.9437
   64POPC   C26 8496   3.277   2.659   3.585 -0.3426 -0.9617  0.1323
   64POPC   H6R 8497   3.219   2.691   3.496  1.9380  2.8885 -0.2368
   64POPC   H6S 8498   3.249   2.734   3.662 -1.2480 -0.7850 -0.3614
   64POPC   C27 8499   3.274   2.514   3.641  0.1309 -0.0019  0.2044
   64POPC   H7R 8500   3.370   2.501   3.694 -0.4726 -0.3168  1.2390
   64POPC   H7S 8501   3.273   2.444   3.555 -1.9261  1.3587 -0.9810
   64POPC   C28 8502   3.148   2.486   3.721  0.1931 -0.1680  0.1600
   64POPC   H8R 8503   3.066   2.518   3.654  0.9024 -2.0637 -1.7161
   64POPC   H8S 8504   3.152   2.553   3.809 -1.3368 -0.2517  0.3303
   64POPC   C29 8505   3.126   2.336   3.751 -0.5375 -0.4285  0.0501
   64POPC   H91 8506   3.069   2.280   3.675  0.1642 -1.3989  0.2150
   64POPC  C210 8507   3.171   2.266   3.859  0.5646 -0.0724 -0.2447
   64POPC  H101 8508   3.155   2.157   3.858 -1.0710  0.1467  0.0805
   64POPC  C211 8509   3.235   2.314   3.984 -0.7332 -0.1225 -0.0021
   64POPC  H11R 8510   3.241   2.424   3.981 -0.0844 -0.1748 -0.7493
   64POPC  H11S 8511   3.333   2.262   3.987  0.5347  2.0728  3.3776
   64POPC  C212 8512   3.153   2.272   4.103 -0.3165 -1.1142 -0.3623
   64POPC  H12R 8513   3.055   2.324   4.110  0.7134  1.0533 -1.2189
   64POPC  H12S 8514   3.212   2.311   4.188  0.7550 -0.2362 -1.4847
   64POPC  C213 8515   3.153   2.120   4.130  0.0857 -0.3480 -0.5607
   64POPC  H13R 8516   3.252   2.069   4.131 -0.5765 -1.6888 -0.2079
   64POPC  H13S 8517   3.092   2.079   4.047  0.0619 -0.6935 -0.3764
   64POPC  C214 8518   3.094   2.078   4.268 -0.4201 -0.4379 -0.3684
   64POPC  H14R 8519   2.985   2.100   4.269 -1.0237 -2.7890 -2.5022
   64POPC  H14S 8520   3.141   2.135   4.350  0.7110 -1.8203 -0.0146
   64POPC  C215 8521   3.126   1.930   4.297 -0.4103 -0.6102 -0.1078
   64POPC  H15R 8522   3.235   1.915   4.289  0.1807  1.9429  1.8141
   64POPC  H15S 8523   3.083   1.869   4.215  0.2413  1.1203 -1.8132
   64POPC  C216 8524   3.086   1.883   4.440  0.0502  0.4127  0.1975
   64POPC  H16R 8525   3.087   1.772   4.444  0.4793  0.4504  1.3600
   64POPC  H16S 8526   2.982   1.917   4.462  0.5858  1.8734  0.5767
   64POPC  C217 8527   3.189   1.923   4.545 -0.4883 -1.0639 -0.8759
   64POPC  H17R 8528   3.195   2.034   4.543 -0.3486 -1.0592 -0.4377
   64POPC  H17S 8529   3.287   1.893   4.504  0.7053 -0.3952  1.3000
   64POPC  C218 8530   3.160   1.882   4.686 -0.1431  0.5258 -0.3757
   64POPC  H18R 8531   3.140   1.773   4.684 -0.8924  0.6730 -1.6699
   64POPC  H18S 8532   3.072   1.927   4.735 -2.0638 -2.2309 -1.0886
   64POPC  H18T 8533   3.255   1.890   4.744 -0.0511 -0.7442 -0.3227
   64POPC   C33 8534   3.338   2.079   3.419  0.6361  0.8772  0.6795
   64POPC   H3X 8535   3.304   1.989   3.363 -0.0618  0.5077  1.6615
   64POPC   H3Y 8536   3.286   2.085   3.517 -2.1575  1.0817 -0.6960
   64POPC   C34 8537   3.492   2.069   3.447  0.3275  0.3372  0.9741
   64POPC   H4X 8538   3.545   2.044   3.352 -0.7718 -0.7755  0.6253
   64POPC   H4Y 8539   3.509   1.993   3.526  0.4615 -1.9737 -1.1358
   64POPC   C35 8540   3.566   2.197   3.495  0.8763  0.3198 -0.1347
   64POPC   H5X 8541   3.557   2.287   3.431  1.0679 -0.3274 -1.0967
   64POPC   H5Y 8542   3.675   2.178   3.497  0.9434  0.5084 -1.3877
   64POPC   C36 8543   3.535   2.224   3.646  0.4959 -0.7793  0.1363
   64POPC   H6X 8544   3.565   2.131   3.698  1.5132  0.4171  1.8119
   64POPC   H6Y 8545   3.426   2.242   3.654  0.3572 -1.9753  1.2961
   64POPC   C37 8546   3.619   2.337   3.700 -0.1860 -0.1338  0.3907
   64POPC   H7X 8547   3.611   2.429   3.639  0.1535 -0.1062  0.3855
   64POPC   H7Y 8548   3.724   2.298   3.703  0.4667  1.5605  2.6874
   64POPC   C38 8549   3.590   2.381   3.848 -0.1731 -0.1347 -0.2684
   64POPC   H8X 8550   3.586   2.292   3.914  1.9423  0.4255  0.6934
   64POPC   H8Y 8551   3.490   2.430   3.854  0.4250  0.8945  2.3600
   64POPC   C39 8552   3.701   2.467   3.902  0.6672  0.7563  0.7036
   64POPC   H9X 8553   3.731   2.544   3.827 -0.1161  0.4336  0.0467
   64POPC   H9Y 8554   3.786   2.400   3.923 -0.4893 -1.5868 -1.6043
   64POPC  C310 8555   3.651   2.554   4.019 -0.5294  0.5463  0.2405
   64POPC  H10X 8556   3.587   2.634   3.976  0.9990  1.1216 -1.0573
   64POPC  H10Y 8557   3.740   2.609   4.056 -1.3764  1.6326  0.7597
   64POPC  C311 8558   3.565   2.481   4.131 -0.8806  0.0337  0.1216
   64POPC  H11X 8559   3.474   2.430   4.093 -0.7647  0.0659 -0.1996
   64POPC  H11Y 8560   3.535   2.555   4.208 -0.5903  0.9393 -0.6164
   64POPC  C312 8561   3.643   2.365   4.196  0.3795 -0.0828 -0.3385
   64POPC  H12X 8562   3.718   2.424   4.254 -1.1624  0.8952  0.7574
   64POPC  H12Y 8563   3.690   2.304   4.116 -0.3358  0.9215 -1.5572
   64POPC  C313 8564   3.564   2.278   4.290  1.5197  1.1232 -0.2690
   64POPC  H13X 8565   3.454   2.298   4.294  0.6550 -3.0290  1.3783
   64POPC  H13Y 8566   3.591   2.306   4.394 -1.3725 -0.4902  1.0435
   64POPC  C314 8567   3.567   2.124   4.270  0.0366  0.3590 -0.5688
   64POPC  H14X 8568   3.672   2.087   4.263  0.1800 -0.1365  2.5977
   64POPC  H14Y 8569   3.512   2.094   4.179 -1.1587 -0.6188  0.4393
   64POPC  C315 8570   3.504   2.050   4.391  0.1982 -0.1457  0.4739
   64POPC  H15X 8571   3.463   1.952   4.361  2.0983 -1.0300  0.5741
   64POPC  H15Y 8572   3.425   2.113   4.436 -1.0966 -1.6616  0.3795
   64POPC  C316 8573   3.600   2.030   4.512 -0.4605  0.2263 -0.2892
   64POPC  H16X 8574   3.699   1.988   4.486 -0.5007  0.4690 -0.8530
   64POPC  H16Y 8575   3.549   1.968   4.589  1.8067  0.7668  1.7437
   64POPC  H16Z 8576   3.615   2.128   4.561  2.1373 -0.2831  0.0698
   65POPC     N 8577   3.517   3.668   2.516 -0.6596  0.6391 -0.4137
   65POPC   C12 8578   3.422   3.565   2.578  0.6688  0.0634  0.2809
   65POPC  H12A 8579   3.466   3.470   2.606  0.7007  0.4429  1.5777
   65POPC  H12B 8580   3.350   3.544   2.501 -1.2395 -0.3243  2.0784
   65POPC   C13 8581   3.596   3.745   2.622 -0.0663  0.5784  0.1157
   65POPC  H13A 8582   3.662   3.815   2.572  0.8872 -1.1384 -1.1382
   65POPC  H13B 8583   3.530   3.799   2.688 -1.3736  1.6066 -1.9251
   65POPC  H13C 8584   3.659   3.677   2.677 -2.3062 -1.4382  0.3926
   65POPC   C14 8585   3.618   3.606   2.417  0.2090  0.1087  0.0745
   65POPC  H14A 8586   3.676   3.533   2.471 -0.0569  1.0973  1.7580
   65POPC  H14B 8587   3.573   3.578   2.323 -0.8145  2.4143 -0.1940
   65POPC  H14C 8588   3.685   3.680   2.377 -1.1132 -0.0263 -2.6407
   65POPC   C15 8589   3.438   3.766   2.442  0.6348 -0.4582  0.4713
   65POPC  H15A 8590   3.500   3.838   2.390  0.2036 -0.0455  0.5139
   65POPC  H15B 8591   3.371   3.813   2.513 -1.5933  0.8876 -2.3223
   65POPC  H15C 8592   3.367   3.718   2.377  0.7181 -0.3037  0.2658
   65POPC   C11 8593   3.325   3.599   2.698 -0.4994 -0.1374  0.2404
   65POPC  H11A 8594   3.383   3.633   2.786 -0.3245  1.1191 -0.3347
   65POPC  H11B 8595   3.267   3.513   2.737 -1.0005  0.7806  1.5923
   65POPC     P 8596   3.105   3.702   2.610  0.0381 -0.1783 -0.4091
   65POPC   O13 8597   3.115   3.633   2.481  0.4866  0.3086 -0.3172
   65POPC   O14 8598   3.038   3.830   2.602 -0.0334 -0.6881  0.1409
   65POPC   O12 8599   3.241   3.715   2.667 -0.1206 -0.0777  0.3301
   65POPC   O11 8600   3.026   3.596   2.714  0.1586  0.2995  0.8128
   65POPC    C1 8601   3.012   3.635   2.852 -0.0989 -0.0845  0.6426
   65POPC    HA 8602   3.096   3.697   2.890 -1.8231  2.3360  0.7421
   65POPC    HB 8603   3.010   3.542   2.913 -1.2693  0.2855  1.1844
   65POPC    C2 8604   2.884   3.730   2.876  0.1301  0.1036 -0.6501
   65POPC    HS 8605   2.900   3.822   2.816  1.0044 -0.0657 -0.6983
   65POPC   O21 8606   2.876   3.767   3.020 -0.2351  0.0322  0.2816
   65POPC   C21 8607   2.958   3.866   3.048  0.1531  0.1098  0.2989
   65POPC   O22 8608   3.037   3.924   2.974 -0.3735  0.0955  0.0674
   65POPC   C22 8609   2.933   3.904   3.187  0.5222 -0.5360 -0.6562
   65POPC   H2R 8610   2.861   3.833   3.233  0.0337 -0.5190 -1.3688
   65POPC   H2S 8611   2.886   4.005   3.183  0.3335 -0.6534 -1.4677
   65POPC    C3 8612   2.746   3.669   2.834  0.3065  0.5047 -0.1584
   65POPC    HX 8613   2.729   3.576   2.891 -5.1944  1.5928  0.5248
   65POPC    HY 8614   2.751   3.638   2.727  0.2495 -2.3370  0.5847
   65POPC   O31 8615   2.634   3.754   2.871 -0.0302 -0.2232 -0.4734
   65POPC   C31 8616   2.622   3.861   2.798  0.3321 -0.7364 -0.5110
   65POPC   O32 8617   2.695   3.886   2.707 -0.3713 -0.7320  0.1199
   65POPC   C32 8618   2.495   3.941   2.830  0.5216 -0.3454 -0.0012
   65POPC   H2X 8619   2.444   3.903   2.921  1.5421  1.4837  1.3988
   65POPC   H2Y 8620   2.432   3.932   2.739  1.1457 -0.4615 -0.4249
   65POPC   C23 8621   3.061   3.890   3.273 -0.2300  0.3255 -0.1147
   65POPC   H3R 8622   3.101   3.788   3.264 -0.4791  0.0492  1.5348
   65POPC   H3S 8623   3.044   3.921   3.379 -1.3056  0.4050 -0.2937
   65POPC   C24 8624   3.172   3.993   3.231  0.0558 -1.0342  0.5044
   65POPC   H4R 8625   3.121   4.084   3.194  3.3115  0.1958 -1.3946
   65POPC   H4S 8626   3.229   3.970   3.138  1.2094 -0.7880  1.1286
   65POPC   C25 8627   3.263   4.035   3.351 -0.0767 -0.2813 -0.3316
   65POPC   H5R 8628   3.196   4.072   3.432 -2.2604 -0.3757 -1.9979
   65POPC   H5S 8629   3.325   4.113   3.302 -0.8773  0.8254  0.3692
   65POPC   C26 8630   3.361   3.922   3.396  0.6388 -0.3504 -1.0112
   65POPC   H6R 8631   3.420   3.902   3.304  1.5761  1.2840 -0.8011
   65POPC   H6S 8632   3.313   3.835   3.445  1.2111 -0.2875 -0.3231
   65POPC   C27 8633   3.462   3.973   3.501 -0.1753 -0.8361 -0.1203
   65POPC   H7R 8634   3.408   4.000   3.594  2.0181  0.8266  0.7526
   65POPC   H7S 8635   3.496   4.074   3.470  0.0144 -1.1759 -1.0708
   65POPC   C28 8636   3.590   3.888   3.518 -0.1677 -0.2381 -0.4189
   65POPC   H8R 8637   3.647   3.893   3.424  0.3553 -0.3755 -0.1145
   65POPC   H8S 8638   3.581   3.777   3.529 -0.0262 -0.0066  4.0077
   65POPC   C29 8639   3.673   3.938   3.627  0.7036  0.0930 -0.1541
   65POPC   H91 8640   3.746   4.017   3.605  0.2003  0.7988  0.6345
   65POPC  C210 8641   3.660   3.889   3.753  0.1570 -0.0553 -0.5825
   65POPC  H101 8642   3.727   3.919   3.835 -1.6553  1.5639  0.3698
   65POPC  C211 8643   3.563   3.786   3.799 -0.4539 -0.2767  0.1669
   65POPC  H11R 8644   3.513   3.740   3.711 -1.9760  0.9288  0.3562
   65POPC  H11S 8645   3.487   3.847   3.853 -1.5710  0.4121 -2.0691
   65POPC  C212 8646   3.621   3.667   3.878  0.4494  0.5238 -0.4685
   65POPC  H12R 8647   3.662   3.716   3.969  0.0737 -0.5173  0.2775
   65POPC  H12S 8648   3.697   3.612   3.818  0.9629  0.4754  0.2155
   65POPC  C213 8649   3.518   3.564   3.925 -0.4950 -0.6049 -0.3769
   65POPC  H13R 8650   3.501   3.496   3.839 -2.2658  1.0786 -1.4407
   65POPC  H13S 8651   3.422   3.609   3.958 -2.3311 -2.9312 -2.2592
   65POPC  C214 8652   3.563   3.474   4.054  0.4994 -0.7637  0.6800
   65POPC  H14R 8653   3.556   3.547   4.137 -1.6215  1.2374 -1.0937
   65POPC  H14S 8654   3.673   3.461   4.043  0.4681 -0.8715  0.4991
   65POPC  C215 8655   3.499   3.334   4.071  0.3363 -0.7675  0.1835
   65POPC  H15R 8656   3.500   3.281   3.973  3.7578 -1.4232  0.4236
   65POPC  H15S 8657   3.394   3.361   4.096  0.0853  2.6306 -3.4758
   65POPC  C216 8658   3.564   3.249   4.181  0.2011 -0.4166 -0.1963
   65POPC  H16R 8659   3.577   3.316   4.269  1.2409  0.8309 -1.2674
   65POPC  H16S 8660   3.669   3.215   4.172  0.9365  2.0289 -1.6350
   65POPC  C217 8661   3.472   3.140   4.245 -0.3770 -0.3370  0.5172
   65POPC  H17R 8662   3.514   3.111   4.343  1.6507 -2.0383 -0.7516
   65POPC  H17S 8663   3.483   3.050   4.179  0.8072  0.3797 -0.3045
   65POPC  C218 8664   3.324   3.176   4.260  0.1859  0.4342  0.7573
   65POPC  H18R 8665   3.274   3.204   4.165  1.3311  0.2954  0.0986
   65POPC  H18S 8666   3.316   3.261   4.331 -1.7291 -1.7045  3.3303
   65POPC  H18T 8667   3.265   3.096   4.311  1.2542 -1.9146 -1.4824
   65POPC   C33 8668   2.515   4.087   2.858 -1.1428 -0.5648 -0.3351
   65POPC   H3X 8669   2.435   4.140   2.802  0.3904  1.3537 -0.8195
   65POPC   H3Y 8670   2.614   4.116   2.816 -1.3419  0.2410 -0.2685
   65POPC   C34 8671   2.508   4.133   3.005 -0.1806 -0.2372 -0.2956
   65POPC   H4X 8672   2.411   4.112   3.054  1.8227  1.2626  4.8979
   65POPC   H4Y 8673   2.502   4.242   3.020 -1.1008 -0.2337 -0.6347
   65POPC   C35 8674   2.626   4.074   3.085 -0.4415  0.1609 -0.8596
   65POPC   H5X 8675   2.723   4.118   3.052  0.7567 -2.2047 -0.7035
   65POPC   H5Y 8676   2.632   3.964   3.067  3.9348  0.3467 -1.5046
   65POPC   C36 8677   2.608   4.106   3.236  0.6279  0.3018  0.1493
   65POPC   H6X 8678   2.648   4.029   3.305 -1.8674  0.4491  1.8781
   65POPC   H6Y 8679   2.503   4.081   3.261  0.4680  0.3190 -0.4840
   65POPC   C37 8680   2.651   4.247   3.283 -0.4286  0.1021  0.2229
   65POPC   H7X 8681   2.569   4.320   3.269 -0.2947  1.4003  4.6482
   65POPC   H7Y 8682   2.741   4.277   3.226 -1.4703  1.3281 -0.8522
   65POPC   C38 8683   2.696   4.253   3.431 -0.0335 -0.4998  0.1145
   65POPC   H8X 8684   2.782   4.182   3.438 -0.5702 -1.5601 -2.7900
   65POPC   H8Y 8685   2.616   4.214   3.498  0.6559  0.6896  1.6767
   65POPC   C39 8686   2.746   4.400   3.468 -0.1652 -0.0406  0.6665
   65POPC   H9X 8687   2.658   4.460   3.499 -1.2459 -0.9452 -0.5455
   65POPC   H9Y 8688   2.797   4.449   3.382 -1.2448  0.3840  0.2512
   65POPC  C310 8689   2.852   4.403   3.578 -0.7896 -0.5088 -0.0805
   65POPC  H10X 8690   2.817   4.335   3.660 -0.3248 -1.0837 -0.3550
   65POPC  H10Y 8691   2.864   4.503   3.624  0.6655 -0.6447 -0.1188
   65POPC  C311 8692   2.988   4.351   3.533  0.4707 -0.3634 -0.4881
   65POPC  H11X 8693   3.024   4.413   3.448 -0.6995  1.0974  0.0401
   65POPC  H11Y 8694   2.979   4.245   3.500 -2.7776 -0.6983  1.0225
   65POPC  C312 8695   3.105   4.360   3.637  0.5455  0.4644 -0.0190
   65POPC  H12X 8696   3.125   4.463   3.672  1.0254  0.9905 -1.7621
   65POPC  H12Y 8697   3.198   4.340   3.580  0.6657  2.3048 -0.5284
   65POPC  C313 8698   3.098   4.257   3.755  0.0041  0.3557 -0.8286
   65POPC  H13X 8699   3.088   4.157   3.707  1.1613  0.6379 -1.7099
   65POPC  H13Y 8700   3.007   4.270   3.816  0.0379 -3.1381  0.1514
   65POPC  C314 8701   3.220   4.256   3.844  0.0847  0.2207 -0.0471
   65POPC  H14X 8702   3.218   4.349   3.905  0.3577 -0.3830  0.9017
   65POPC  H14Y 8703   3.315   4.257   3.786  0.2036 -0.1527  0.1386
   65POPC  C315 8704   3.210   4.140   3.946 -0.0226 -0.7279  0.1338
   65POPC  H15X 8705   3.296   4.154   4.015 -1.9190  1.8883  2.1813
   65POPC  H15Y 8706   3.227   4.045   3.891  0.8058 -0.4181 -0.1595
   65POPC  C316 8707   3.083   4.148   4.030 -0.2327  0.1206  0.2672
   65POPC  H16X 8708   3.091   4.077   4.115  0.0794 -1.5211 -1.0748
   65POPC  H16Y 8709   2.994   4.125   3.967  1.3790 -3.1531 -1.0359
   65POPC  H16Z 8710   3.080   4.248   4.079  1.2937  0.4051 -0.1741
   66POPC     N 8711   4.123   2.568   2.055 -0.1844 -0.2672 -0.1611
   66POPC   C12 8712   4.169   2.571   2.197  0.4841  0.0576 -0.1700
   66POPC  H12A 8713   4.230   2.483   2.213  0.4077  0.2309  1.1367
   66POPC  H12B 8714   4.086   2.559   2.264  1.9986 -2.1771  1.4659
   66POPC   C13 8715   4.233   2.559   1.963 -0.5865  0.0013  0.1966
   66POPC  H13A 8716   4.297   2.473   1.980  0.7322  0.4635 -1.9252
   66POPC  H13B 8717   4.193   2.546   1.864 -0.0575 -0.4063  0.0303
   66POPC  H13C 8718   4.294   2.649   1.969  0.4036 -0.7408  1.9782
   66POPC   C14 8719   4.043   2.438   2.035 -0.1850  0.3380  0.2586
   66POPC  H14A 8720   4.099   2.351   2.067  1.1632  0.1144 -2.4186
   66POPC  H14B 8721   3.948   2.443   2.086 -0.4920 -1.0815 -0.1183
   66POPC  H14C 8722   4.021   2.437   1.929  1.5900  0.0827 -0.1284
   66POPC   C15 8723   4.030   2.676   2.017  0.1633 -0.8594  0.3177
   66POPC  H15A 8724   3.936   2.673   2.070  0.3586  0.0561  0.7371
   66POPC  H15B 8725   4.005   2.677   1.911 -0.0223  0.7999  0.3460
   66POPC  H15C 8726   4.072   2.773   2.038 -1.2137  0.3119 -1.8578
   66POPC   C11 8727   4.243   2.697   2.243  0.3555  0.1852 -0.0658
   66POPC  H11A 8728   4.321   2.732   2.172  1.2060 -0.5713  0.4569
   66POPC  H11B 8729   4.292   2.665   2.338 -0.9770  0.9320  0.9067
   66POPC     P 8730   4.150   2.941   2.248 -0.2004 -0.2115  0.1626
   66POPC   O13 8731   4.056   3.006   2.339  0.7031  0.2839  0.1607
   66POPC   O14 8732   4.161   2.969   2.104  0.2116  0.0046  0.4042
   66POPC   O12 8733   4.140   2.786   2.262  0.1156  0.3282  0.2978
   66POPC   O11 8734   4.299   2.961   2.304 -0.1951  0.4645 -0.1227
   66POPC    C1 8735   4.319   2.932   2.449 -0.3483 -0.1110 -0.3968
   66POPC    HA 8736   4.417   2.881   2.457 -0.9727 -1.1550  0.7952
   66POPC    HB 8737   4.236   2.873   2.494 -2.2225  1.9518 -0.9784
   66POPC    C2 8738   4.333   3.065   2.528  0.1979  0.8979 -0.1493
   66POPC    HS 8739   4.256   3.137   2.492  0.4923  1.8347  1.0303
   66POPC   O21 8740   4.468   3.119   2.517  0.3549 -0.1916 -0.2380
   66POPC   C21 8741   4.466   3.250   2.514 -0.3208  0.2411 -0.0771
   66POPC   O22 8742   4.365   3.320   2.510 -0.0454  0.3739  0.1985
   66POPC   C22 8743   4.609   3.289   2.478  0.4427  0.0793 -0.1147
   66POPC   H2R 8744   4.622   3.279   2.368  1.6843 -0.3793  0.0533
   66POPC   H2S 8745   4.680   3.225   2.535  0.9722  0.5082 -0.2895
   66POPC    C3 8746   4.302   3.039   2.680 -0.4537  0.7427  0.2362
   66POPC    HX 8747   4.372   2.961   2.718 -2.2039 -1.3567 -0.6654
   66POPC    HY 8748   4.203   2.991   2.695  0.2965 -0.8990  0.1140
   66POPC   O31 8749   4.326   3.155   2.762 -0.0907  0.0352 -0.2197
   66POPC   C31 8750   4.267   3.150   2.879  0.7575 -0.3910  0.0873
   66POPC   O32 8751   4.202   3.057   2.924 -0.0379  0.1842 -0.4870
   66POPC   C32 8752   4.284   3.293   2.941 -0.2433  0.0438  0.2452
   66POPC   H2X 8753   4.214   3.359   2.885  0.3966 -0.0388 -0.6726
   66POPC   H2Y 8754   4.384   3.335   2.916 -0.0931 -0.3588  0.1610
   66POPC   C23 8755   4.643   3.430   2.525 -0.8087 -0.9886 -0.1415
   66POPC   H3R 8756   4.575   3.508   2.483  0.2488  0.0578  0.0292
   66POPC   H3S 8757   4.737   3.458   2.472 -1.4752  0.8316 -0.4427
   66POPC   C24 8758   4.673   3.441   2.677 -0.3290 -0.4459 -0.0699
   66POPC   H4R 8759   4.759   3.379   2.707 -2.9437 -3.2520  2.2296
   66POPC   H4S 8760   4.576   3.405   2.717 -1.4359  1.8924 -0.4353
   66POPC   C25 8761   4.693   3.579   2.741  0.1182 -0.4812  0.0297
   66POPC   H5R 8762   4.596   3.632   2.737 -2.0773 -4.2301 -1.2531
   66POPC   H5S 8763   4.770   3.636   2.685 -0.1043  1.1459  1.3313
   66POPC   C26 8764   4.742   3.562   2.887  0.1323 -1.7838 -0.0719
   66POPC   H6R 8765   4.812   3.645   2.908 -0.0767 -1.9663  1.4366
   66POPC   H6S 8766   4.809   3.473   2.894  1.8409 -0.4389  1.6338
   66POPC   C27 8767   4.631   3.558   2.991  0.3188  0.5329  0.1104
   66POPC   H7R 8768   4.557   3.476   2.974 -1.7911  2.0313  1.4463
   66POPC   H7S 8769   4.568   3.650   2.993 -0.5057 -0.0153  0.2848
   66POPC   C28 8770   4.682   3.544   3.133  0.7412  0.0780  0.0781
   66POPC   H8R 8771   4.588   3.553   3.192  0.8467  0.1696  0.2330
   66POPC   H8S 8772   4.750   3.628   3.159  0.1367  1.8199 -3.4184
   66POPC   C29 8773   4.749   3.413   3.158  0.0319  0.3564  0.7049
   66POPC   H91 8774   4.697   3.343   3.091 -2.3178  1.1467  1.5933
   66POPC  C210 8775   4.861   3.376   3.228 -0.8674  0.4565 -0.0647
   66POPC  H101 8776   4.901   3.275   3.216  2.2878  1.4596  1.1402
   66POPC  C211 8777   4.927   3.460   3.335 -0.4341  0.5646  0.3186
   66POPC  H11R 8778   4.869   3.548   3.369  1.6074  2.1557 -0.1253
   66POPC  H11S 8779   5.029   3.492   3.306 -0.1338  0.7797  1.5239
   66POPC  C212 8780   4.950   3.379   3.463 -0.2085  0.4978 -0.4192
   66POPC  H12R 8781   4.854   3.363   3.516  0.9647  0.9849  2.0065
   66POPC  H12S 8782   5.028   3.431   3.523  0.6253 -0.3963 -0.6986
   66POPC  C213 8783   5.005   3.237   3.453 -0.0246  0.4426  0.5765
   66POPC  H13R 8784   5.089   3.236   3.380  1.0982  4.0637  1.6251
   66POPC  H13S 8785   4.922   3.173   3.416  1.1259  0.4450 -2.2845
   66POPC  C214 8786   5.060   3.187   3.587 -0.1582 -0.3947 -0.2349
   66POPC  H14R 8787   5.155   3.239   3.614  0.2889 -0.9610 -0.6792
   66POPC  H14S 8788   5.085   3.079   3.573 -0.8341 -0.4110 -1.3936
   66POPC  C215 8789   4.954   3.207   3.691 -0.1966  0.0352  0.2279
   66POPC  H15R 8790   4.849   3.190   3.662 -1.0170  1.7897  1.9347
   66POPC  H15S 8791   4.957   3.313   3.723  1.7595  0.1058 -0.0358
   66POPC  C216 8792   4.989   3.146   3.831  0.0819  1.0093  0.1680
   66POPC  H16R 8793   4.966   3.037   3.822 -3.2824  1.6541 -0.5113
   66POPC  H16S 8794   4.918   3.176   3.911 -2.0128  1.3920 -1.7144
   66POPC  C217 8795   5.135   3.174   3.868  0.3116  1.1385  0.2493
   66POPC  H17R 8796   5.152   3.284   3.863  0.2759  1.1222 -3.7457
   66POPC  H17S 8797   5.194   3.120   3.790 -0.7754  1.4123 -0.7887
   66POPC  C218 8798   5.163   3.124   4.013 -0.0901  0.0655 -0.6959
   66POPC  H18R 8799   5.135   3.017   4.021 -1.4563  0.4656  0.1052
   66POPC  H18S 8800   5.093   3.176   4.082 -1.0525  0.1141 -1.6804
   66POPC  H18T 8801   5.268   3.151   4.041  0.0413 -0.1658 -0.9561
   66POPC   C33 8802   4.248   3.296   3.088  0.2444  0.4538  0.4771
   66POPC   H3X 8803   4.316   3.233   3.148 -0.8161  0.0416  1.2864
   66POPC   H3Y 8804   4.140   3.270   3.095  0.1813 -0.2378 -2.1602
   66POPC   C34 8805   4.253   3.436   3.145 -0.6029 -0.8173 -0.2313
   66POPC   H4X 8806   4.150   3.479   3.139 -0.6789 -0.8547  0.7404
   66POPC   H4Y 8807   4.305   3.506   3.076 -1.1067 -0.3260 -0.1181
   66POPC   C35 8808   4.323   3.438   3.279 -0.3436  0.1629 -0.2472
   66POPC   H5X 8809   4.422   3.389   3.275 -1.7906 -3.5178  2.7984
   66POPC   H5Y 8810   4.253   3.386   3.348  1.4790  0.7043  2.1449
   66POPC   C36 8811   4.338   3.578   3.343  0.0518 -0.5615  0.6314
   66POPC   H6X 8812   4.238   3.626   3.356  0.4077  0.0116  1.3699
   66POPC   H6Y 8813   4.384   3.645   3.268  1.4459 -1.1483  0.9281
   66POPC   C37 8814   4.408   3.597   3.478  0.9842 -0.3563  0.4082
   66POPC   H7X 8815   4.353   3.541   3.557  0.6948  1.9129  1.9133
   66POPC   H7Y 8816   4.403   3.702   3.512  0.9098 -0.9365  2.3742
   66POPC   C38 8817   4.551   3.548   3.499  0.5294 -0.5086 -0.6192
   66POPC   H8X 8818   4.623   3.610   3.443 -0.0476  2.5996  1.8233
   66POPC   H8Y 8819   4.571   3.440   3.479 -0.8604 -0.7713 -0.7262
   66POPC   C39 8820   4.588   3.574   3.649 -0.1796  0.2702 -0.0325
   66POPC   H9X 8821   4.516   3.515   3.710  0.7218 -0.7275  0.0855
   66POPC   H9Y 8822   4.583   3.683   3.667  1.0058  0.2358  0.5773
   66POPC  C310 8823   4.725   3.519   3.690  0.2022 -0.6737 -0.0824
   66POPC  H10X 8824   4.791   3.560   3.611 -0.7672 -0.9500 -1.0635
   66POPC  H10Y 8825   4.715   3.408   3.680  1.3083 -0.7441 -0.5416
   66POPC  C311 8826   4.767   3.565   3.830 -0.4868 -0.2293 -0.2669
   66POPC  H11X 8827   4.765   3.676   3.827 -2.1893 -0.2436 -0.6983
   66POPC  H11Y 8828   4.875   3.547   3.847 -0.6848  0.3816  1.8334
   66POPC  C312 8829   4.677   3.501   3.936 -0.0046 -0.6638 -0.6355
   66POPC  H12X 8830   4.672   3.391   3.922  1.6774 -0.8764  0.3176
   66POPC  H12Y 8831   4.569   3.528   3.942  0.2784  0.2961  0.3196
   66POPC  C313 8832   4.733   3.518   4.080 -0.1168  0.0630 -0.0168
   66POPC  H13X 8833   4.651   3.502   4.153  0.7393 -0.0268  0.9461
   66POPC  H13Y 8834   4.775   3.618   4.105  0.8008 -0.9540  3.0432
   66POPC  C314 8835   4.851   3.420   4.096 -0.4683  0.2579 -0.2102
   66POPC  H14X 8836   4.929   3.425   4.017 -1.3285 -0.6373 -1.1552
   66POPC  H14Y 8837   4.802   3.320   4.097  1.3030 -0.6622  1.2927
   66POPC  C315 8838   4.912   3.425   4.237  0.1753  0.2921 -0.1472
   66POPC  H15X 8839   4.968   3.333   4.266  1.0072  0.5582 -0.8812
   66POPC  H15Y 8840   4.837   3.438   4.318 -0.7689 -0.8558 -0.8005
   66POPC  C316 8841   5.020   3.536   4.242 -0.1033  0.0506 -0.3054
   66POPC  H16X 8842   4.968   3.633   4.226 -1.1745 -0.6894 -1.4482
   66POPC  H16Y 8843   5.102   3.519   4.170 -0.0834 -1.4984  0.0588
   66POPC  H16Z 8844   5.061   3.533   4.346  2.1026  1.7416 -1.0286
   67POPC     N 8845   2.188   3.207   2.348  0.7618  0.0829  0.1241
   67POPC   C12 8846   2.093   3.109   2.283 -0.0161 -0.3102  1.0608
   67POPC  H12A 8847   2.112   3.098   2.178 -1.8819 -2.3106  0.8721
   67POPC  H12B 8848   1.994   3.150   2.274 -0.0547 -0.9512 -3.8761
   67POPC   C13 8849   2.334   3.166   2.359  0.2051 -0.1393 -0.0961
   67POPC  H13A 8850   2.390   3.246   2.404  0.5718  0.6760 -1.8816
   67POPC  H13B 8851   2.351   3.083   2.425 -1.5778  0.3692  1.0844
   67POPC  H13C 8852   2.360   3.137   2.258 -0.2994  1.9919 -0.9090
   67POPC   C14 8853   2.174   3.328   2.258  0.1299 -0.1500 -0.2661
   67POPC  H14A 8854   2.176   3.309   2.152 -0.5390  1.3609 -0.5769
   67POPC  H14B 8855   2.081   3.378   2.281 -1.0126 -2.1153 -0.3726
   67POPC  H14C 8856   2.253   3.395   2.289  0.9440 -1.5999  0.9271
   67POPC   C15 8857   2.139   3.250   2.482  0.1221 -0.1847 -0.1269
   67POPC  H15A 8858   2.032   3.254   2.490  0.2550 -0.2519  2.6843
   67POPC  H15B 8859   2.174   3.348   2.510 -4.0214  1.4620 -0.1385
   67POPC  H15C 8860   2.170   3.180   2.559  0.6800 -0.8155 -0.9075
   67POPC   C11 8861   2.079   2.973   2.350 -0.7832 -0.2052  0.1820
   67POPC  H11A 8862   2.053   2.990   2.456  1.3474  1.1717  0.5523
   67POPC  H11B 8863   2.176   2.919   2.355 -0.3078  0.3846 -1.6734
   67POPC     P 8864   2.005   2.745   2.230  0.3289 -0.0175 -0.0908
   67POPC   O13 8865   2.142   2.717   2.172  0.0250  0.6327 -0.9464
   67POPC   O14 8866   1.895   2.711   2.143  0.1795  0.6486  0.6459
   67POPC   O12 8867   1.987   2.894   2.277  0.2100  0.3851  0.4357
   67POPC   O11 8868   1.992   2.654   2.370  0.3970  0.3574  0.1379
   67POPC    C1 8869   1.862   2.642   2.433 -0.1750 -0.1984 -0.2143
   67POPC    HA 8870   1.848   2.543   2.482 -1.8422  0.3195  0.4358
   67POPC    HB 8871   1.782   2.638   2.356  0.0837 -2.2246 -0.4301
   67POPC    C2 8872   1.849   2.754   2.536  0.3382  0.4190 -0.6872
   67POPC    HS 8873   1.875   2.848   2.482  0.7461  0.0913 -1.0686
   67POPC   O21 8874   1.934   2.716   2.641 -0.0007 -0.0425  0.1602
   67POPC   C21 8875   1.939   2.794   2.742 -0.7327  0.6575  0.5391
   67POPC   O22 8876   1.888   2.904   2.763 -0.0678 -0.5651  0.4931
   67POPC   C22 8877   2.028   2.718   2.840  0.5415  0.3070 -0.4861
   67POPC   H2R 8878   2.132   2.757   2.831  1.0924 -0.8383  0.5552
   67POPC   H2S 8879   2.023   2.610   2.816 -0.9390 -0.5871  3.1941
   67POPC    C3 8880   1.696   2.788   2.574  0.0062 -0.5279 -0.5008
   67POPC    HX 8881   1.642   2.776   2.478  0.2335 -1.0267 -0.5698
   67POPC    HY 8882   1.689   2.894   2.608  2.4124 -0.7020  0.8164
   67POPC   O31 8883   1.654   2.690   2.667 -0.0397  1.0402  0.2796
   67POPC   C31 8884   1.542   2.708   2.723 -0.2618  0.7066 -0.0890
   67POPC   O32 8885   1.473   2.807   2.698 -0.6024  0.8282  0.2259
   67POPC   C32 8886   1.514   2.598   2.829 -0.5856  0.3523  0.2073
   67POPC   H2X 8887   1.595   2.522   2.827  0.4827  1.0459  4.9498
   67POPC   H2Y 8888   1.423   2.552   2.786 -0.1137 -0.2675 -0.1496
   67POPC   C23 8889   1.987   2.722   2.984  0.7520 -0.4138  0.2369
   67POPC   H3R 8890   1.895   2.660   2.993  0.8086 -0.5859 -0.3019
   67POPC   H3S 8891   1.965   2.824   3.021  0.6801  0.0149 -0.9393
   67POPC   C24 8892   2.091   2.660   3.081  0.1237  0.1584  0.9611
   67POPC   H4R 8893   2.191   2.708   3.077 -0.4721  1.3680 -1.8179
   67POPC   H4S 8894   2.096   2.552   3.056  0.0360  0.5128 -0.7107
   67POPC   C25 8895   2.033   2.663   3.222  0.2968  0.3537 -0.7259
   67POPC   H5R 8896   1.936   2.608   3.224  0.2750  0.3740 -1.1183
   67POPC   H5S 8897   2.018   2.771   3.241 -0.1820 -0.0759  1.7107
   67POPC   C26 8898   2.133   2.595   3.314 -0.1248  0.5822 -1.0877
   67POPC   H6R 8899   2.236   2.627   3.287  1.4495  0.9139  4.1528
   67POPC   H6S 8900   2.130   2.485   3.297 -0.6582  0.3475  0.3811
   67POPC   C27 8901   2.098   2.626   3.461 -0.1232  0.2937  0.4336
   67POPC   H7R 8902   1.991   2.599   3.477 -0.0484  0.1069  0.6344
   67POPC   H7S 8903   2.106   2.736   3.458 -0.2556  0.2827 -0.7207
   67POPC   C28 8904   2.193   2.556   3.556  0.4227  0.2084  0.1218
   67POPC   H8R 8905   2.286   2.616   3.556 -0.2805  1.5098  3.3384
   67POPC   H8S 8906   2.209   2.456   3.511  1.4000  0.7600 -0.8182
   67POPC   C29 8907   2.145   2.541   3.695  0.0593 -0.0773 -0.2756
   67POPC   H91 8908   2.132   2.637   3.746 -1.3435  0.2582 -1.2247
   67POPC  C210 8909   2.150   2.429   3.771  0.3265  0.5706  0.0608
   67POPC  H101 8910   2.115   2.434   3.875 -0.7775 -0.8068 -0.2123
   67POPC  C211 8911   2.197   2.294   3.731 -0.5991  0.4533 -0.4313
   67POPC  H11R 8912   2.152   2.252   3.639  1.5048 -0.3613 -1.1591
   67POPC  H11S 8913   2.170   2.225   3.814 -0.6248 -0.8853 -1.5217
   67POPC  C212 8914   2.350   2.299   3.706  0.5517 -0.0776 -0.2450
   67POPC  H12R 8915   2.388   2.389   3.760 -1.5997  0.4624  0.4703
   67POPC  H12S 8916   2.368   2.323   3.600  1.3715  2.4669  0.3962
   67POPC  C213 8917   2.417   2.162   3.713 -0.1158  0.2312 -0.8251
   67POPC  H13R 8918   2.523   2.179   3.685  0.9973 -1.0203  2.2250
   67POPC  H13S 8919   2.371   2.086   3.647  1.2558 -2.9723  1.6680
   67POPC  C214 8920   2.432   2.105   3.853  0.1027  0.2015 -0.0796
   67POPC  H14R 8921   2.333   2.078   3.896 -0.8341  0.7860 -1.7627
   67POPC  H14S 8922   2.476   2.179   3.924  0.2736 -0.0748  0.1058
   67POPC  C215 8923   2.518   1.981   3.857  1.5625  0.0045  0.0990
   67POPC  H15R 8924   2.505   1.924   3.762 -1.4083 -0.3211  0.6060
   67POPC  H15S 8925   2.470   1.919   3.935 -1.7307  2.2229  0.0752
   67POPC  C216 8926   2.664   2.009   3.880 -0.6809  0.1903  0.3254
   67POPC  H16R 8927   2.679   2.061   3.977 -1.2967 -0.2046  0.6440
   67POPC  H16S 8928   2.701   2.070   3.795  1.5988 -0.2041  0.9616
   67POPC  C217 8929   2.758   1.882   3.894 -0.9500 -0.2183 -0.3124
   67POPC  H17R 8930   2.748   1.825   3.799 -1.4360  1.1941 -1.1391
   67POPC  H17S 8931   2.718   1.819   3.976 -1.3796 -0.1281 -0.4458
   67POPC  C218 8932   2.906   1.907   3.926  0.8856 -0.2255  0.1228
   67POPC  H18R 8933   2.921   1.962   4.020 -1.3559  0.2140  0.2835
   67POPC  H18S 8934   2.940   1.973   3.843 -2.0226  0.0638 -0.9844
   67POPC  H18T 8935   2.967   1.814   3.923  1.2061 -0.0899  1.6694
   67POPC   C33 8936   1.495   2.650   2.970  0.6379 -0.3132 -0.0321
   67POPC   H3X 8937   1.447   2.575   3.036 -0.5132  1.8099  1.6585
   67POPC   H3Y 8938   1.419   2.731   2.973 -0.2770 -1.1416 -0.1703
   67POPC   C34 8939   1.611   2.709   3.048 -0.2674 -0.7913  0.4650
   67POPC   H4X 8940   1.652   2.800   2.998  0.6124 -0.3606  1.9119
   67POPC   H4Y 8941   1.691   2.633   3.059  1.4667  0.7940 -0.6124
   67POPC   C35 8942   1.561   2.749   3.187  0.3228  0.1144 -0.7301
   67POPC   H5X 8943   1.494   2.670   3.228  2.0648 -1.4561 -0.7965
   67POPC   H5Y 8944   1.513   2.849   3.178  2.5680  1.6782  2.3767
   67POPC   C36 8945   1.680   2.785   3.277 -0.0586 -0.4426  0.3080
   67POPC   H6X 8946   1.723   2.872   3.222 -3.3915  0.9362 -0.3823
   67POPC   H6Y 8947   1.748   2.698   3.282  0.2940 -0.1962 -0.1038
   67POPC   C37 8948   1.627   2.826   3.412 -0.2621 -0.0245 -0.4509
   67POPC   H7X 8949   1.532   2.773   3.436 -0.8855  1.1338 -0.2935
   67POPC   H7Y 8950   1.608   2.935   3.424  2.0151  0.4156 -0.3186
   67POPC   C38 8951   1.738   2.788   3.512 -0.0270 -0.3014  0.2707
   67POPC   H8X 8952   1.828   2.849   3.490 -0.1240  0.6315  2.2634
   67POPC   H8Y 8953   1.763   2.680   3.509  0.5557 -0.1492 -1.0433
   67POPC   C39 8954   1.706   2.804   3.666 -0.2519  0.0807 -0.5632
   67POPC   H9X 8955   1.640   2.720   3.698 -0.3539  0.4471  0.2115
   67POPC   H9Y 8956   1.675   2.909   3.687  0.6677  0.6564 -1.9319
   67POPC  C310 8957   1.839   2.785   3.750 -0.1747  0.6306 -0.0469
   67POPC  H10X 8958   1.919   2.839   3.696  1.8873 -0.7452  1.4770
   67POPC  H10Y 8959   1.872   2.679   3.742 -0.4967  0.5484 -0.3168
   67POPC  C311 8960   1.831   2.834   3.893 -0.3339  0.0398 -0.6226
   67POPC  H11X 8961   1.747   2.772   3.932 -0.0668 -1.6249 -2.5232
   67POPC  H11Y 8962   1.804   2.942   3.892 -1.1782 -0.1582 -1.4724
   67POPC  C312 8963   1.957   2.803   3.979 -0.1796  0.2210 -0.1280
   67POPC  H12X 8964   2.033   2.875   3.940 -1.4671  0.8610 -1.5681
   67POPC  H12Y 8965   1.994   2.701   3.958 -2.7795 -1.1155  1.2973
   67POPC  C313 8966   1.949   2.829   4.136 -0.2101 -0.8197  0.0026
   67POPC  H13X 8967   1.891   2.739   4.170 -2.9871 -0.6478 -3.7006
   67POPC  H13Y 8968   1.882   2.914   4.160 -0.8690 -1.2132 -0.4104
   67POPC  C314 8969   2.080   2.869   4.208 -0.6451 -0.3485 -0.5378
   67POPC  H14X 8970   2.120   2.965   4.170  0.1494 -0.4718 -0.0423
   67POPC  H14Y 8971   2.161   2.797   4.185  0.9948  0.4008  2.4186
   67POPC  C315 8972   2.065   2.880   4.354 -0.5486 -0.6906 -0.2214
   67POPC  H15X 8973   1.974   2.942   4.371 -0.6646 -0.9502  0.1384
   67POPC  H15Y 8974   2.144   2.929   4.415  0.1606 -1.8481 -0.1636
   67POPC  C316 8975   2.040   2.748   4.422 -0.1770  0.0759 -0.1539
   67POPC  H16X 8976   1.958   2.686   4.381  0.3986 -0.7248 -0.1311
   67POPC  H16Y 8977   2.022   2.771   4.529  1.3213  0.1902  0.0937
   67POPC  H16Z 8978   2.138   2.696   4.410 -1.0259 -1.9537  1.3814
   68POPC     N 8979   3.872   3.433   2.036  0.2026  0.5049 -0.3686
   68POPC   C12 8980   3.965   3.498   2.135 -0.0674 -0.0264  0.4495
   68POPC  H12A 8981   4.027   3.566   2.079  0.8206 -1.2843 -0.1378
   68POPC  H12B 8982   4.027   3.417   2.171 -2.0164 -0.9892  1.7825
   68POPC   C13 8983   3.949   3.352   1.938 -0.7234 -0.1327 -0.2206
   68POPC  H13A 8984   3.886   3.294   1.873  0.7406 -0.9879 -0.9246
   68POPC  H13B 8985   4.011   3.408   1.869 -2.6749  2.8665  0.2796
   68POPC  H13C 8986   4.019   3.291   1.994  1.2141  0.9264 -1.3429
   68POPC   C14 8987   3.780   3.345   2.112  0.2705 -0.4987 -0.1251
   68POPC  H14A 8988   3.709   3.401   2.172 -0.5438  0.3078 -1.7858
   68POPC  H14B 8989   3.713   3.291   2.047 -1.5373  1.4217  0.0117
   68POPC  H14C 8990   3.847   3.280   2.167 -1.0673 -1.1846  0.7519
   68POPC   C15 8991   3.797   3.531   1.963 -0.0995 -0.3384 -0.0126
   68POPC  H15A 8992   3.748   3.603   2.027 -0.4933 -1.0825  0.5373
   68POPC  H15B 8993   3.733   3.485   1.889  0.1413  1.3508 -1.3313
   68POPC  H15C 8994   3.860   3.593   1.900 -1.2528  1.2123  0.2789
   68POPC   C11 8995   3.906   3.583   2.251  0.1750  0.2416  0.9849
   68POPC  H11A 8996   3.982   3.596   2.330 -1.6052  1.9015  2.5371
   68POPC  H11B 8997   3.821   3.524   2.292  0.0498 -0.5322 -0.3102
   68POPC     P 8998   3.964   3.821   2.153  0.1654 -0.0949  0.3985
   68POPC   O13 8999   3.890   3.947   2.135  0.1338 -0.5318 -0.6607
   68POPC   O14 9000   4.049   3.769   2.040  0.6357  0.2949 -0.4786
   68POPC   O12 9001   3.863   3.713   2.208 -0.1657  0.1840  0.1270
   68POPC   O11 9002   4.055   3.839   2.279 -0.5310 -0.1879 -0.4244
   68POPC    C1 9003   4.006   3.858   2.410  0.0112 -0.3746  0.0795
   68POPC    HA 9004   4.039   3.781   2.483 -3.2344 -2.1142 -0.1339
   68POPC    HB 9005   3.895   3.862   2.415 -0.0196  0.2794 -0.8816
   68POPC    C2 9006   4.043   4.002   2.457  0.0951 -0.4667 -0.0329
   68POPC    HS 9007   3.991   4.070   2.386  0.0668  0.7364  1.0964
   68POPC   O21 9008   4.186   4.007   2.463  0.2511  0.7698 -0.1028
   68POPC   C21 9009   4.238   4.123   2.492 -0.5162  0.0128 -0.0017
   68POPC   O22 9010   4.179   4.229   2.502 -0.7407 -0.5669  0.1507
   68POPC   C22 9011   4.378   4.104   2.540  0.0481  0.5321  0.1853
   68POPC   H2R 9012   4.436   4.198   2.530  0.0713  0.5461  0.4279
   68POPC   H2S 9013   4.423   4.035   2.466 -2.6410  0.2381 -1.3010
   68POPC    C3 9014   3.979   4.020   2.606 -0.2283 -0.2599  0.3303
   68POPC    HX 9015   3.871   4.013   2.581 -0.3559  0.6951  0.5640
   68POPC    HY 9016   4.007   4.121   2.643 -1.1026 -0.9562  3.0662
   68POPC   O31 9017   4.019   3.927   2.700  0.0577  0.3507 -0.2403
   68POPC   C31 9018   3.922   3.857   2.770  0.1804  0.4173  0.5092
   68POPC   O32 9019   3.805   3.866   2.749  0.0703  0.0372 -0.0594
   68POPC   C32 9020   3.980   3.760   2.865 -0.1677  0.1638 -0.6370
   68POPC   H2X 9021   4.058   3.812   2.925  0.6440  0.6981 -2.1228
   68POPC   H2Y 9022   4.035   3.683   2.807  1.9514  0.1410  1.2623
   68POPC   C23 9023   4.384   4.057   2.688 -0.5733 -0.7630 -0.2094
   68POPC   H3R 9024   4.334   4.136   2.748  0.2717 -1.4257  1.4204
   68POPC   H3S 9025   4.493   4.060   2.709 -0.5316  2.3792 -0.3781
   68POPC   C24 9026   4.340   3.911   2.709 -0.0373  0.3452  0.3515
   68POPC   H4R 9027   4.400   3.845   2.642 -0.8000 -0.6346  0.6103
   68POPC   H4S 9028   4.236   3.889   2.679  0.6444 -3.2399  0.1068
   68POPC   C25 9029   4.342   3.864   2.856 -0.0709  0.7082  0.2251
   68POPC   H5R 9030   4.448   3.848   2.882  0.5541  0.3232 -2.3009
   68POPC   H5S 9031   4.286   3.768   2.861  0.1436  0.2435 -3.5483
   68POPC   C26 9032   4.268   3.962   2.953  0.1996 -0.0717 -0.6367
   68POPC   H6R 9033   4.166   3.983   2.915 -0.2964  2.1292  1.6143
   68POPC   H6S 9034   4.325   4.057   2.964  0.7772 -0.5571  0.8527
   68POPC   C27 9035   4.262   3.900   3.102 -0.1859 -0.5370  0.0229
   68POPC   H7R 9036   4.369   3.890   3.131 -0.1843 -0.7883 -0.0658
   68POPC   H7S 9037   4.221   3.797   3.101  0.0722 -0.6451 -0.6861
   68POPC   C28 9038   4.172   3.985   3.193 -0.2667  0.0968 -0.0997
   68POPC   H8R 9039   4.201   4.092   3.180 -0.4994  0.2035  0.2406
   68POPC   H8S 9040   4.189   3.946   3.296  0.6489 -0.7821 -0.5641
   68POPC   C29 9041   4.023   3.974   3.172  0.7294  0.0090 -0.2171
   68POPC   H91 9042   4.002   3.957   3.066  1.2603 -2.5604  0.0273
   68POPC  C210 9043   3.930   3.987   3.271  0.1249 -0.5456  0.1089
   68POPC  H101 9044   3.822   3.989   3.251  0.0461 -1.6348  0.3982
   68POPC  C211 9045   3.973   4.018   3.414  0.7230 -0.4989 -0.1548
   68POPC  H11R 9046   3.896   4.073   3.472  0.2190 -0.6112 -0.7159
   68POPC  H11S 9047   4.069   4.075   3.421 -0.5408  2.0158 -1.7813
   68POPC  C212 9048   3.993   3.899   3.506 -0.3003  0.4597 -0.0319
   68POPC  H12R 9049   4.080   3.838   3.474 -0.0228 -1.8450  4.3442
   68POPC  H12S 9050   3.905   3.832   3.497  1.0117 -1.0896 -2.4282
   68POPC  C213 9051   4.039   3.931   3.650 -0.1994 -1.0790 -0.3394
   68POPC  H13R 9052   3.958   3.968   3.716  1.3722 -1.5480  2.0120
   68POPC  H13S 9053   4.126   4.001   3.654 -1.0532  0.0904 -1.5722
   68POPC  C214 9054   4.083   3.799   3.728  0.5591 -0.6072 -0.6307
   68POPC  H14R 9055   4.145   3.734   3.662 -1.2229  0.2173 -3.2921
   68POPC  H14S 9056   3.990   3.741   3.745  0.2271 -0.0082 -0.3570
   68POPC  C215 9057   4.157   3.825   3.857 -0.2774 -0.1326  0.2120
   68POPC  H15R 9058   4.082   3.861   3.931  0.1970  1.9628 -0.2380
   68POPC  H15S 9059   4.232   3.907   3.851 -0.1603 -0.2833 -0.4125
   68POPC  C216 9060   4.229   3.700   3.899  0.9950  0.0038  0.0010
   68POPC  H16R 9061   4.269   3.649   3.809  0.7383  0.1971 -0.2244
   68POPC  H16S 9062   4.144   3.637   3.935  1.3223 -1.3608 -1.4996
   68POPC  C217 9063   4.327   3.709   4.015  0.2768  0.4574 -0.7647
   68POPC  H17R 9064   4.369   3.610   4.044 -1.0127  0.4006  1.0470
   68POPC  H17S 9065   4.273   3.745   4.105  1.3064 -1.5520  0.7490
   68POPC  C218 9066   4.438   3.809   3.993  0.1363  0.4782  0.1804
   68POPC  H18R 9067   4.505   3.821   4.081 -0.6345  2.1324  0.5764
   68POPC  H18S 9068   4.397   3.912   3.989 -0.4477  0.2034 -1.3576
   68POPC  H18T 9069   4.489   3.780   3.899  1.2403 -0.9488  1.1695
   68POPC   C33 9070   3.877   3.705   2.968 -0.3627  0.6324  0.2399
   68POPC   H3X 9071   3.809   3.645   2.904  2.2978  0.1967 -2.4069
   68POPC   H3Y 9072   3.820   3.795   3.001 -1.6499  0.7285 -1.9859
   68POPC   C34 9073   3.937   3.614   3.076  0.5591 -0.1952 -0.7693
   68POPC   H4X 9074   4.013   3.673   3.132 -0.8497  0.8534  0.1003
   68POPC   H4Y 9075   3.987   3.525   3.031  2.5409  0.1433  0.6229
   68POPC   C35 9076   3.832   3.546   3.163  0.1375  0.1354  0.2442
   68POPC   H5X 9077   3.756   3.486   3.109  1.4450 -2.7241  1.3652
   68POPC   H5Y 9078   3.774   3.634   3.200 -1.0261  0.3396 -1.8804
   68POPC   C36 9079   3.900   3.465   3.274  0.4806  0.0782 -0.0872
   68POPC   H6X 9080   3.971   3.539   3.316 -0.9324  1.4365  0.0304
   68POPC   H6Y 9081   3.956   3.373   3.247 -0.7278 -0.6843 -0.0618
   68POPC   C37 9082   3.791   3.429   3.388 -0.4190  0.1507  0.2642
   68POPC   H7X 9083   3.713   3.369   3.337  0.8439 -1.7669  0.4609
   68POPC   H7Y 9084   3.743   3.520   3.429  0.5790  1.0844 -0.5821
   68POPC   C38 9085   3.845   3.357   3.517 -0.1248 -0.0842  0.4163
   68POPC   H8X 9086   3.910   3.277   3.475 -0.2200  0.2594 -0.4125
   68POPC   H8Y 9087   3.760   3.319   3.577  1.6643 -1.8726  1.9748
   68POPC   C39 9088   3.930   3.453   3.598  0.4922 -0.2870  0.2648
   68POPC   H9X 9089   3.879   3.539   3.648  1.1508 -0.1379  0.6995
   68POPC   H9Y 9090   4.003   3.502   3.530  2.4629 -2.8062  0.4055
   68POPC  C310 9091   4.016   3.389   3.705 -0.0689  0.6402  0.2006
   68POPC  H10X 9092   4.107   3.451   3.724  1.0821 -0.9186 -0.0347
   68POPC  H10Y 9093   4.058   3.292   3.670  1.1501  1.3041 -0.2320
   68POPC  C311 9094   3.948   3.367   3.846 -0.7765  0.3110  0.1215
   68POPC  H11X 9095   3.874   3.287   3.830  2.4772 -3.3136  1.5451
   68POPC  H11Y 9096   3.892   3.460   3.870 -1.5707  0.0099 -0.5481
   68POPC  C312 9097   4.053   3.332   3.948 -0.1161  0.1521 -0.0965
   68POPC  H12X 9098   4.131   3.410   3.938 -0.8494  0.9276  0.1311
   68POPC  H12Y 9099   4.096   3.230   3.931 -4.5837 -1.8306 -0.9274
   68POPC  C313 9100   4.003   3.343   4.093 -0.0573  0.4554 -0.4023
   68POPC  H13X 9101   3.989   3.242   4.137  3.6940  0.0535  0.1539
   68POPC  H13Y 9102   3.918   3.414   4.097  0.2131  0.8118 -0.9488
   68POPC  C314 9103   4.104   3.415   4.186 -0.2591  0.4429 -0.6620
   68POPC  H14X 9104   4.058   3.439   4.284  1.1589  1.0631 -0.1279
   68POPC  H14Y 9105   4.138   3.511   4.141  1.8881 -0.2766 -0.7009
   68POPC  C315 9106   4.227   3.336   4.237  0.6321 -0.4323  0.5989
   68POPC  H15X 9107   4.291   3.399   4.303  2.3336 -0.8943 -0.5520
   68POPC  H15Y 9108   4.277   3.297   4.145  0.3219  1.5245 -0.4549
   68POPC  C316 9109   4.189   3.215   4.328  0.1713 -0.4859  0.0834
   68POPC  H16X 9110   4.158   3.239   4.432  1.8136 -2.9942  1.2550
   68POPC  H16Y 9111   4.271   3.140   4.337 -0.2723 -1.2878 -1.9519
   68POPC  H16Z 9112   4.101   3.160   4.288 -1.6206  1.7526  0.7317
   69POPC     N 9113   3.213   0.931   2.390  0.6597  0.4806  0.3247
   69POPC   C12 9114   3.167   1.073   2.372  0.1340  0.5161 -0.0630
   69POPC  H12A 9115   3.062   1.077   2.348 -0.2263  0.6348  1.4473
   69POPC  H12B 9116   3.214   1.129   2.293  0.7217  1.2942  0.8139
   69POPC   C13 9117   3.359   0.910   2.419 -0.7040 -0.9707  0.2916
   69POPC  H13A 9118   3.385   0.942   2.519  0.7146  1.6613 -0.8371
   69POPC  H13B 9119   3.375   0.804   2.406  0.3717 -0.6161 -1.5549
   69POPC  H13C 9120   3.421   0.967   2.352 -1.6115  1.0934  1.1232
   69POPC   C14 9121   3.142   0.871   2.510  0.2810 -0.1778 -0.6128
   69POPC  H14A 9122   3.186   0.776   2.536  0.4338 -0.2196 -1.0165
   69POPC  H14B 9123   3.148   0.937   2.595  0.3981  1.6675 -1.9827
   69POPC  H14C 9124   3.035   0.862   2.500 -0.0358 -1.0344  2.4629
   69POPC   C15 9125   3.174   0.844   2.277  0.4943 -0.2727  0.0807
   69POPC  H15A 9126   3.215   0.745   2.293 -0.7115 -0.9740 -1.0337
   69POPC  H15B 9127   3.197   0.888   2.181 -3.4246  3.0507  0.4049
   69POPC  H15C 9128   3.069   0.824   2.283  0.4926 -0.8333 -1.3257
   69POPC   C11 9129   3.180   1.164   2.491 -0.7543 -1.0023 -0.0998
   69POPC  H11A 9130   3.102   1.136   2.564 -1.7587 -0.6938 -1.0339
   69POPC  H11B 9131   3.155   1.264   2.447  1.6911 -0.7277 -1.0702
   69POPC     P 9132   3.407   1.290   2.543 -0.0263  0.0259 -0.3850
   69POPC   O13 9133   3.330   1.413   2.509  0.3625 -0.1848  0.0658
   69POPC   O14 9134   3.521   1.261   2.448  0.0595  0.5390  0.0390
   69POPC   O12 9135   3.314   1.169   2.553  0.5246 -0.1038 -0.4876
   69POPC   O11 9136   3.459   1.301   2.693 -0.0805 -0.0920 -0.3643
   69POPC    C1 9137   3.386   1.357   2.802 -0.0231 -0.4408 -0.4375
   69POPC    HA 9138   3.326   1.284   2.859 -0.6744  1.2246  1.0877
   69POPC    HB 9139   3.314   1.432   2.763  0.3877  0.5766  0.6984
   69POPC    C2 9140   3.478   1.433   2.902  0.4354  0.1274 -0.2981
   69POPC    HS 9141   3.531   1.517   2.854 -1.7951  0.7632 -1.7709
   69POPC   O21 9142   3.559   1.329   2.962  0.5202 -0.0431 -0.3861
   69POPC   C21 9143   3.685   1.340   2.941  0.5135 -0.5044  0.1646
   69POPC   O22 9144   3.738   1.423   2.867 -0.2770 -0.6431  0.1166
   69POPC   C22 9145   3.757   1.232   3.011 -0.4524 -0.4304 -0.4303
   69POPC   H2R 9146   3.796   1.181   2.920 -0.3663 -1.4925  0.1855
   69POPC   H2S 9147   3.689   1.161   3.063 -0.7451 -0.3276 -0.6692
   69POPC    C3 9148   3.384   1.495   3.021  0.0265 -0.1643 -0.8274
   69POPC    HX 9149   3.286   1.442   3.027 -0.8229  1.2587 -1.7026
   69POPC    HY 9150   3.360   1.599   2.992  2.3246  1.6778  3.2198
   69POPC   O31 9151   3.446   1.494   3.154  0.0884  0.1626 -0.7572
   69POPC   C31 9152   3.438   1.610   3.226  0.4324  0.2192  0.1234
   69POPC   O32 9153   3.385   1.713   3.186  0.3800 -0.4496  0.2852
   69POPC   C32 9154   3.516   1.587   3.360 -0.9018  0.1842  0.2552
   69POPC   H2X 9155   3.626   1.576   3.347 -0.7914  0.7028  0.7097
   69POPC   H2Y 9156   3.476   1.490   3.398 -2.1293  1.1126  1.4011
   69POPC   C23 9157   3.873   1.277   3.108 -0.0353 -0.4498  0.6687
   69POPC   H3R 9158   3.930   1.359   3.061 -1.3143 -0.3764 -0.8483
   69POPC   H3S 9159   3.943   1.193   3.127 -2.1430 -2.2040  1.1418
   69POPC   C24 9160   3.806   1.324   3.233  0.3785 -0.9359 -0.3912
   69POPC   H4R 9161   3.752   1.250   3.297 -1.8665 -0.1111 -1.2284
   69POPC   H4S 9162   3.733   1.403   3.206  2.6806  1.2839 -0.5107
   69POPC   C25 9163   3.908   1.397   3.332 -0.1679 -0.4261 -0.1301
   69POPC   H5R 9164   3.980   1.320   3.364  1.8181  1.3707 -0.0724
   69POPC   H5S 9165   3.839   1.420   3.416 -0.5948  1.2010 -0.8845
   69POPC   C26 9166   3.973   1.519   3.259  1.0281 -0.4349 -0.3140
   69POPC   H6R 9167   3.893   1.565   3.198  0.6618  0.2653  0.6642
   69POPC   H6S 9168   4.054   1.494   3.186 -1.3595  1.3861 -3.8509
   69POPC   C27 9169   4.011   1.632   3.351  0.1772 -0.5536  0.0941
   69POPC   H7R 9170   4.107   1.619   3.404  0.1401  0.9527  0.5746
   69POPC   H7S 9171   3.929   1.646   3.425  1.0040  0.6581  0.8072
   69POPC   C28 9172   4.013   1.772   3.278  0.3869 -0.0874 -0.0700
   69POPC   H8R 9173   3.920   1.781   3.218  1.3811 -0.4430 -1.7190
   69POPC   H8S 9174   4.091   1.767   3.199  1.1372 -0.3125  0.6683
   69POPC   C29 9175   4.030   1.882   3.370 -0.2458  0.2738 -0.2999
   69POPC   H91 9176   3.947   1.953   3.367  0.0834  0.8424  2.0835
   69POPC  C210 9177   4.132   1.910   3.455 -0.0434  0.2246 -1.3623
   69POPC  H101 9178   4.139   1.998   3.521  1.8017 -1.3493  0.6847
   69POPC  C211 9179   4.262   1.829   3.461 -0.4219 -0.2225 -0.1460
   69POPC  H11R 9180   4.349   1.898   3.457 -0.9018  0.4630  0.6261
   69POPC  H11S 9181   4.267   1.752   3.381 -1.7737 -1.6245  1.0595
   69POPC  C212 9182   4.270   1.741   3.585 -0.3496  0.2457 -0.2720
   69POPC  H12R 9183   4.353   1.668   3.575  0.1494  0.9977 -1.9455
   69POPC  H12S 9184   4.181   1.677   3.600  0.9037 -0.9211  3.1559
   69POPC  C213 9185   4.319   1.824   3.709  0.5217 -0.6460  0.6260
   69POPC  H13R 9186   4.229   1.864   3.761  0.1970  2.1206 -1.8017
   69POPC  H13S 9187   4.367   1.921   3.686 -2.3492  0.7940  0.1862
   69POPC  C214 9188   4.411   1.737   3.795  0.0944 -0.1434  0.3244
   69POPC  H14R 9189   4.495   1.707   3.729 -0.9520  0.0808 -1.1326
   69POPC  H14S 9190   4.373   1.640   3.833 -1.1347  0.1185 -0.1817
   69POPC  C215 9191   4.462   1.821   3.907  0.4238 -0.8191 -0.8336
   69POPC  H15R 9192   4.381   1.845   3.980  0.9320 -1.3427 -0.0880
   69POPC  H15S 9193   4.507   1.917   3.874  1.9197 -0.4708  1.9119
   69POPC  C216 9194   4.564   1.744   3.987  0.2277  0.0104  0.6764
   69POPC  H16R 9195   4.531   1.639   4.001  1.5217 -0.5469 -0.2012
   69POPC  H16S 9196   4.572   1.792   4.087 -0.6176  1.7961 -0.0549
   69POPC  C217 9197   4.688   1.735   3.912  0.0170 -0.0052  0.3673
   69POPC  H17R 9198   4.704   1.823   3.847 -1.9812  0.4911  0.4975
   69POPC  H17S 9199   4.686   1.650   3.840  2.8684 -0.5217  0.7436
   69POPC  C218 9200   4.815   1.702   4.005 -0.5616 -1.0060 -0.1360
   69POPC  H18R 9201   4.850   1.794   4.058  3.5752 -1.8452 -1.0950
   69POPC  H18S 9202   4.901   1.688   3.936 -0.4928  0.9502 -0.5254
   69POPC  H18T 9203   4.794   1.615   4.071  0.7613 -1.4833 -0.3134
   69POPC   C33 9204   3.510   1.711   3.454  0.3368  0.8006 -0.2625
   69POPC   H3X 9205   3.407   1.749   3.437  0.1145 -0.3818 -1.8324
   69POPC   H3Y 9206   3.579   1.791   3.421 -0.1093  1.7736  1.0930
   69POPC   C34 9207   3.536   1.659   3.600 -0.2651 -0.9892  0.3603
   69POPC   H4X 9208   3.479   1.566   3.622 -1.3376 -0.7649 -1.2858
   69POPC   H4Y 9209   3.523   1.739   3.677  0.7834 -0.3972 -0.0558
   69POPC   C35 9210   3.687   1.630   3.618 -0.1381 -0.3271 -0.0874
   69POPC   H5X 9211   3.740   1.726   3.601 -1.9741  0.5596 -1.1498
   69POPC   H5Y 9212   3.711   1.549   3.546  1.7696 -0.6200  0.8283
   69POPC   C36 9213   3.725   1.575   3.755 -0.2484  0.2228  0.0418
   69POPC   H6X 9214   3.684   1.474   3.777 -1.1577  0.2384 -1.4955
   69POPC   H6Y 9215   3.676   1.652   3.818 -2.6527 -2.5713  1.8290
   69POPC   C37 9216   3.875   1.567   3.795  0.7879  0.0385 -0.6773
   69POPC   H7X 9217   3.916   1.670   3.796 -0.9567  0.7610  1.1593
   69POPC   H7Y 9218   3.934   1.507   3.722 -1.6216 -0.9023 -1.9430
   69POPC   C38 9219   3.896   1.514   3.938 -0.4236 -0.6937  0.0363
   69POPC   H8X 9220   3.883   1.404   3.926 -2.0676 -0.7109  1.5587
   69POPC   H8Y 9221   3.817   1.548   4.008 -0.9120  2.7533 -1.9594
   69POPC   C39 9222   4.045   1.548   3.985  0.6933  0.6083 -0.2967
   69POPC   H9X 9223   4.066   1.655   4.006  1.5035  0.4119 -0.0702
   69POPC   H9Y 9224   4.112   1.520   3.901  3.8055  2.0049  1.5493
   69POPC  C310 9225   4.088   1.461   4.106  0.3307  0.3907 -0.0432
   69POPC  H10X 9226   4.069   1.354   4.084  1.0162 -0.4109  2.7881
   69POPC  H10Y 9227   4.020   1.491   4.189  0.7676  1.6448 -0.1201
   69POPC  C311 9228   4.239   1.472   4.137 -0.5058  0.0218 -0.4643
   69POPC  H11X 9229   4.268   1.578   4.157 -1.0445  0.1588 -0.3923
   69POPC  H11Y 9230   4.286   1.444   4.041 -4.0613  0.8969 -2.6423
   69POPC  C312 9231   4.282   1.381   4.249  0.3413  0.7845 -0.2384
   69POPC  H12X 9232   4.224   1.403   4.341  0.2951  0.4638 -0.1887
   69POPC  H12Y 9233   4.390   1.402   4.269  0.9039  0.6698 -2.8503
   69POPC  C313 9234   4.286   1.232   4.215 -0.3292 -0.4669 -0.1298
   69POPC  H13X 9235   4.368   1.222   4.140 -0.7118 -0.6938 -0.5224
   69POPC  H13Y 9236   4.187   1.188   4.190 -0.9601 -0.9340  2.8108
   69POPC  C314 9237   4.318   1.133   4.338 -0.0506 -0.2208  0.6424
   69POPC  H14X 9238   4.418   1.159   4.380  0.0734  1.8710 -0.8153
   69POPC  H14Y 9239   4.323   1.030   4.299 -1.1686  0.3190 -1.0443
   69POPC  C315 9240   4.219   1.144   4.455  0.1967  1.1219 -0.0208
   69POPC  H15X 9241   4.123   1.094   4.430  0.7886  0.1617 -0.4175
   69POPC  H15Y 9242   4.204   1.249   4.487  0.5591  1.2241 -0.1861
   69POPC  C316 9243   4.279   1.081   4.578  0.0513 -0.2213 -1.4186
   69POPC  H16X 9244   4.374   1.126   4.614 -0.7579  0.2853  0.2168
   69POPC  H16Y 9245   4.292   0.972   4.562  0.3222 -0.5909  0.9172
   69POPC  H16Z 9246   4.199   1.088   4.656  0.7599 -2.2447 -0.4500
   70POPC     N 9247   1.968   4.920   2.189 -0.0198  0.9805 -0.1914
   70POPC   C12 9248   1.961   5.004   2.312 -0.5896 -0.4081 -0.4950
   70POPC  H12A 9249   1.859   5.018   2.347 -0.8264 -1.0482 -0.9021
   70POPC  H12B 9250   2.001   5.101   2.289  3.4240 -1.6889  0.2588
   70POPC   C13 9251   2.105   4.908   2.139  0.1416 -0.6760  0.3700
   70POPC  H13A 9252   2.104   4.851   2.047  1.0375  0.8995 -0.6817
   70POPC  H13B 9253   2.128   5.009   2.108 -0.7581  0.5446  3.3243
   70POPC  H13C 9254   2.181   4.874   2.207 -0.5712  0.3912  1.7641
   70POPC   C14 9255   1.908   4.790   2.214 -0.0522  0.1949 -0.4369
   70POPC  H14A 9256   1.803   4.803   2.238  0.2693 -0.3421  1.4248
   70POPC  H14B 9257   1.927   4.714   2.141  1.0254 -0.2180  0.2505
   70POPC  H14C 9258   1.948   4.750   2.306  1.0990 -0.5852 -1.2601
   70POPC   C15 9259   1.878   4.985   2.085 -0.0242 -0.0409  0.4106
   70POPC  H15A 9260   1.772   4.982   2.109 -0.3992 -1.7186 -1.2070
   70POPC  H15B 9261   1.877   4.943   1.986  0.0589 -0.3950  0.5565
   70POPC  H15C 9262   1.909   5.088   2.085  0.5549 -0.1980  1.2625
   70POPC   C11 9263   2.047   4.962   2.428  0.1736 -0.1962 -0.0159
   70POPC  H11A 9264   2.037   5.047   2.499  0.3678 -0.2845  0.1172
   70POPC  H11B 9265   2.155   4.957   2.404  0.0420 -0.6172 -0.5381
   70POPC     P 9266   1.873   4.851   2.594 -0.0419 -0.1622  0.0078
   70POPC   O13 9267   1.815   4.716   2.590  0.5164 -0.5309 -0.3269
   70POPC   O14 9268   1.790   4.963   2.550 -0.0089 -0.1716  0.3472
   70POPC   O12 9269   1.994   4.843   2.491  0.1862  0.7874 -0.4100
   70POPC   O11 9270   1.943   4.877   2.737  0.1256 -0.2715  0.0164
   70POPC    C1 9271   2.017   4.780   2.810  0.0048  0.0156 -0.5917
   70POPC    HA 9272   2.111   4.826   2.847 -1.6225  3.3211 -0.2748
   70POPC    HB 9273   2.045   4.693   2.746  0.1804 -0.0212 -0.4649
   70POPC    C2 9274   1.941   4.722   2.938 -0.1587 -0.4757 -0.0747
   70POPC    HS 9275   1.836   4.708   2.905 -0.7770  3.8648 -0.5219
   70POPC   O21 9276   1.955   4.817   3.041  0.0767 -0.7761 -0.5982
   70POPC   C21 9277   1.842   4.852   3.111  0.5624  0.0407 -0.2265
   70POPC   O22 9278   1.731   4.813   3.073  0.3029 -0.0290  0.4502
   70POPC   C22 9279   1.868   4.934   3.240 -0.2769  0.4110 -0.1970
   70POPC   H2R 9280   1.862   4.854   3.317  2.5639  0.7876  0.5504
   70POPC   H2S 9281   1.789   5.012   3.248 -0.8775  0.3563 -3.8253
   70POPC    C3 9282   2.006   4.594   2.995 -1.2627  0.6751 -0.2100
   70POPC    HX 9283   1.987   4.508   2.927  0.0728  0.8468 -0.8285
   70POPC    HY 9284   1.947   4.566   3.085 -1.9140 -1.7960 -1.3229
   70POPC   O31 9285   2.151   4.606   3.017  0.1066  0.7176 -0.0415
   70POPC   C31 9286   2.191   4.642   3.141  0.3486  0.1624 -0.5031
   70POPC   O32 9287   2.115   4.648   3.236  0.2111  0.1255  0.0669
   70POPC   C32 9288   2.338   4.675   3.151 -0.1619  0.5482  0.6360
   70POPC   H2X 9289   2.353   4.777   3.109  1.4001  0.1473  0.1522
   70POPC   H2Y 9290   2.391   4.596   3.092 -1.2965  1.6645 -2.0569
   70POPC   C23 9291   2.006   5.010   3.251  0.7300  0.4675 -0.4616
   70POPC   H3R 9292   2.010   5.075   3.161 -0.3325 -1.6461 -2.1256
   70POPC   H3S 9293   2.078   4.927   3.233 -1.4167 -1.5839 -0.0492
   70POPC   C24 9294   2.029   5.070   3.397 -0.3372 -0.2737  0.3751
   70POPC   H4R 9295   2.005   4.997   3.477  1.2992 -1.9923 -0.6167
   70POPC   H4S 9296   1.965   5.161   3.407  0.1847  0.0024  1.3435
   70POPC   C25 9297   2.167   5.123   3.422  0.3995 -0.0467 -0.4943
   70POPC   H5R 9298   2.246   5.074   3.362  0.5137  0.1789 -0.5320
   70POPC   H5S 9299   2.194   5.114   3.529  1.8942  0.6598 -0.7849
   70POPC   C26 9300   2.180   5.273   3.376  0.1082  0.1577  0.0225
   70POPC   H6R 9301   2.092   5.323   3.424  0.9705 -1.0793  3.1270
   70POPC   H6S 9302   2.165   5.277   3.266 -0.1486 -1.2264 -0.0102
   70POPC   C27 9303   2.319   5.338   3.393  0.9424 -0.2439 -0.5390
   70POPC   H7R 9304   2.310   5.433   3.336 -1.1372  0.4702  0.8621
   70POPC   H7S 9305   2.392   5.274   3.338  0.1495 -0.7893 -0.9780
   70POPC   C28 9306   2.348   5.354   3.545 -0.6359  0.4279  0.4784
   70POPC   H8R 9307   2.456   5.361   3.567 -0.3538 -1.2928 -0.2195
   70POPC   H8S 9308   2.311   5.267   3.603  0.0899 -0.6640 -0.6511
   70POPC   C29 9309   2.285   5.482   3.586  0.0434  0.9111 -0.1856
   70POPC   H91 9310   2.331   5.571   3.540  1.6521 -0.8772 -2.2794
   70POPC  C210 9311   2.209   5.502   3.697  0.1701 -0.4806  0.7308
   70POPC  H101 9312   2.179   5.605   3.723  1.3123 -0.4925  2.2839
   70POPC  C211 9313   2.158   5.397   3.791 -0.2534 -1.2129 -0.0899
   70POPC  H11R 9314   2.217   5.303   3.787 -0.2669 -1.2038 -0.6110
   70POPC  H11S 9315   2.053   5.366   3.770 -1.1216  1.0954  0.5069
   70POPC  C212 9316   2.173   5.450   3.938  0.7901  1.1690 -0.2716
   70POPC  H12R 9317   2.136   5.366   4.000  0.8876  1.5337  0.2846
   70POPC  H12S 9318   2.115   5.543   3.959 -0.9495  0.1390 -0.3049
   70POPC  C213 9319   2.320   5.482   3.981 -0.0208  0.7424  1.0752
   70POPC  H13R 9320   2.367   5.557   3.914  2.7456 -1.8064 -0.0754
   70POPC  H13S 9321   2.374   5.385   3.967 -1.7496 -0.3898  1.8576
   70POPC  C214 9322   2.352   5.517   4.125  0.0781  0.0012  0.1236
   70POPC  H14R 9323   2.308   5.433   4.183 -2.6901  0.7535 -0.7413
   70POPC  H14S 9324   2.298   5.611   4.152  0.6079 -0.4968  3.2960
   70POPC  C215 9325   2.501   5.538   4.144 -0.0010  0.1897  0.2761
   70POPC  H15R 9326   2.516   5.546   4.254 -0.2114 -2.2283  0.5387
   70POPC  H15S 9327   2.526   5.636   4.098  0.0794  0.9070  1.7764
   70POPC  C216 9328   2.597   5.435   4.093 -0.4485 -0.6871  0.0962
   70POPC  H16R 9329   2.584   5.425   3.983 -0.8240  3.3748 -0.3581
   70POPC  H16S 9330   2.587   5.333   4.136 -0.2327 -0.5887  0.3826
   70POPC  C217 9331   2.749   5.484   4.101  0.1121  0.1710 -0.0569
   70POPC  H17R 9332   2.810   5.400   4.060 -1.0801 -0.7636  0.0135
   70POPC  H17S 9333   2.773   5.483   4.210 -3.3142 -0.9542  0.8303
   70POPC  C218 9334   2.773   5.620   4.028 -0.6922 -0.2474 -0.1004
   70POPC  H18R 9335   2.763   5.614   3.918  1.9752  0.3656 -0.4380
   70POPC  H18S 9336   2.881   5.643   4.028 -0.0023 -3.1172  0.1639
   70POPC  H18T 9337   2.715   5.708   4.066 -2.1665 -0.2350 -2.1752
   70POPC   C33 9338   2.393   4.677   3.295  0.3625 -0.0252 -0.0825
   70POPC   H3X 9339   2.504   4.669   3.293  0.5630  2.3583 -1.1961
   70POPC   H3Y 9340   2.352   4.597   3.361 -0.5138  1.8774  1.8221
   70POPC   C34 9341   2.377   4.818   3.362 -0.2889  0.1005  0.0777
   70POPC   H4X 9342   2.276   4.833   3.406 -0.3619 -1.5997  0.5716
   70POPC   H4Y 9343   2.395   4.897   3.286  0.1010 -0.7849 -0.7804
   70POPC   C35 9344   2.495   4.840   3.464 -0.2832 -0.1251  0.8455
   70POPC   H5X 9345   2.589   4.868   3.412 -0.3079  1.0282  1.3819
   70POPC   H5Y 9346   2.513   4.735   3.494 -0.9842 -0.3830  0.3822
   70POPC   C36 9347   2.457   4.927   3.578  0.5418 -0.2913 -0.3484
   70POPC   H6X 9348   2.367   4.888   3.630  0.1502 -2.1020 -2.2415
   70POPC   H6Y 9349   2.441   5.030   3.541 -0.5355  0.3063  1.5985
   70POPC   C37 9350   2.551   4.939   3.698  0.4541 -0.1738  0.0150
   70POPC   H7X 9351   2.658   4.961   3.679  0.4518 -0.8061 -0.7619
   70POPC   H7Y 9352   2.559   4.846   3.759 -2.7047 -0.6534 -0.1527
   70POPC   C38 9353   2.491   5.032   3.815 -0.7356  0.6144 -0.4455
   70POPC   H8X 9354   2.386   5.002   3.833 -0.6045  0.6262  0.3681
   70POPC   H8Y 9355   2.487   5.135   3.774  2.1020  0.7639 -0.5584
   70POPC   C39 9356   2.584   5.032   3.941  0.0709  0.2069  0.4307
   70POPC   H9X 9357   2.540   5.108   4.009 -0.7298 -0.2657  0.4532
   70POPC   H9Y 9358   2.680   5.059   3.892 -0.5575 -1.1904 -1.7286
   70POPC  C310 9359   2.616   4.897   4.011  0.0556 -0.4381  0.2061
   70POPC  H10X 9360   2.664   4.825   3.942  0.3412  0.3789 -0.4671
   70POPC  H10Y 9361   2.524   4.847   4.049 -1.3108  1.4313 -0.4552
   70POPC  C311 9362   2.703   4.926   4.133 -0.2729 -0.1816  0.6617
   70POPC  H11X 9363   2.668   5.013   4.192  0.3867 -1.2870  2.7709
   70POPC  H11Y 9364   2.807   4.944   4.097 -0.9480 -0.6133 -1.7245
   70POPC  C312 9365   2.705   4.801   4.228  0.0689  0.5091  0.3221
   70POPC  H12X 9366   2.804   4.815   4.277  0.3154 -0.8838  0.2492
   70POPC  H12Y 9367   2.708   4.717   4.156 -1.6740  2.5085 -2.2365
   70POPC  C313 9368   2.582   4.787   4.330  0.2850  1.1395 -0.3482
   70POPC  H13X 9369   2.490   4.810   4.272  0.9001  3.5755 -0.4569
   70POPC  H13Y 9370   2.587   4.860   4.413 -4.2577 -1.4473  2.6717
   70POPC  C314 9371   2.573   4.645   4.401  0.0032 -0.1386 -0.4616
   70POPC  H14X 9372   2.677   4.608   4.419  0.2727  0.8358  0.0370
   70POPC  H14Y 9373   2.523   4.568   4.339 -1.7239  1.8359 -1.6361
   70POPC  C315 9374   2.501   4.655   4.533 -0.1905  0.1068 -0.1023
   70POPC  H15X 9375   2.404   4.705   4.508  1.6367  3.3148 -1.4721
   70POPC  H15Y 9376   2.554   4.717   4.608  0.2817 -0.2422 -0.1460
   70POPC  C316 9377   2.470   4.523   4.598 -0.1662  0.5210 -0.2435
   70POPC  H16X 9378   2.564   4.468   4.620 -0.2166  0.2286 -0.7472
   70POPC  H16Y 9379   2.408   4.474   4.521  2.8336 -1.6483 -1.4934
   70POPC  H16Z 9380   2.412   4.529   4.692  0.5174  0.2670  0.2088
   71POPC     N 9381   1.524   3.972   2.306  0.4258 -0.0575 -0.3893
   71POPC   C12 9382   1.618   3.927   2.415 -0.4179  0.6380  0.4252
   71POPC  H12A 9383   1.646   4.011   2.477  2.6903 -0.5710  0.8128
   71POPC  H12B 9384   1.708   3.891   2.368  0.1318  2.1639  0.2562
   71POPC   C13 9385   1.494   3.857   2.214  0.2986 -0.1729  0.0599
   71POPC  H13A 9386   1.401   3.874   2.160 -0.0304 -1.2971  0.2522
   71POPC  H13B 9387   1.580   3.832   2.154  1.3199  0.0398  1.3949
   71POPC  H13C 9388   1.484   3.772   2.279  1.5323 -0.9336 -0.7032
   71POPC   C14 9389   1.391   4.014   2.363 -0.4815  0.3002  0.7712
   71POPC  H14A 9390   1.407   4.083   2.444  0.8631  0.1359  0.6772
   71POPC  H14B 9391   1.335   4.054   2.280 -0.7922 -2.4668 -0.4747
   71POPC  H14C 9392   1.331   3.933   2.402 -1.4925  0.8318  0.3611
   71POPC   C15 9393   1.561   4.084   2.219 -0.4062 -0.7473 -0.4472
   71POPC  H15A 9394   1.484   4.104   2.147 -0.8505  1.3067  0.5276
   71POPC  H15B 9395   1.654   4.069   2.165  0.8987  2.9562  0.4538
   71POPC  H15C 9396   1.576   4.170   2.283  1.0332  0.0631 -1.8140
   71POPC   C11 9397   1.571   3.820   2.514  0.4199 -0.4341  1.0737
   71POPC  H11A 9398   1.468   3.845   2.549  0.1802  0.1309  0.0232
   71POPC  H11B 9399   1.630   3.815   2.608 -1.2165  1.3216  2.2558
   71POPC     P 9400   1.692   3.606   2.450 -0.1152 -0.1684  0.1816
   71POPC   O13 9401   1.805   3.701   2.447  0.1572  0.3794 -0.0535
   71POPC   O14 9402   1.700   3.505   2.344  0.1298  0.3877 -0.1148
   71POPC   O12 9403   1.556   3.690   2.451  0.2508 -0.4145 -0.2015
   71POPC   O11 9404   1.674   3.537   2.592  0.5316 -0.5623  0.4967
   71POPC    C1 9405   1.579   3.431   2.617 -0.3494 -1.0794  0.0255
   71POPC    HA 9406   1.640   3.350   2.662  2.8800  2.0448  1.7767
   71POPC    HB 9407   1.528   3.399   2.524  1.2451 -0.3732 -1.1283
   71POPC    C2 9408   1.478   3.471   2.721  0.1610 -1.1108  0.5644
   71POPC    HS 9409   1.402   3.546   2.690  0.4555  0.6248  3.6813
   71POPC   O21 9410   1.548   3.530   2.835  0.1499  0.6130  0.4238
   71POPC   C21 9411   1.475   3.555   2.937 -0.3857 -0.1752 -0.3019
   71POPC   O22 9412   1.353   3.552   2.944  0.4089  0.4166 -0.3081
   71POPC   C22 9413   1.572   3.600   3.051 -0.1129 -0.0113  0.1433
   71POPC   H2R 9414   1.678   3.615   3.024  0.2621  0.1507  1.6066
   71POPC   H2S 9415   1.569   3.520   3.127 -0.3595 -0.2205 -0.0846
   71POPC    C3 9416   1.384   3.346   2.742  0.0176 -0.1519  0.0259
   71POPC    HX 9417   1.338   3.304   2.650 -0.5397 -0.8874  0.6354
   71POPC    HY 9418   1.293   3.385   2.792  0.6722  0.8997  0.4365
   71POPC   O31 9419   1.440   3.251   2.826  0.7691  0.3415 -0.0023
   71POPC   C31 9420   1.494   3.141   2.768  0.1930 -0.2647 -0.1316
   71POPC   O32 9421   1.496   3.123   2.646 -0.4361 -0.0018 -0.2490
   71POPC   C32 9422   1.543   3.041   2.872 -0.1287 -0.4040 -0.0932
   71POPC   H2X 9423   1.624   2.978   2.829  0.3230 -0.1573  0.3914
   71POPC   H2Y 9424   1.458   2.973   2.892 -0.6535 -1.4523 -4.7177
   71POPC   C23 9425   1.530   3.739   3.100  0.0250  0.2788 -0.1665
   71POPC   H3R 9426   1.454   3.733   3.181 -1.0605 -2.2609 -1.2782
   71POPC   H3S 9427   1.487   3.795   3.013 -1.5488  0.9710  0.9917
   71POPC   C24 9428   1.643   3.825   3.150  0.4686  0.0620  0.5758
   71POPC   H4R 9429   1.603   3.928   3.154  0.9092  0.2102  1.2282
   71POPC   H4S 9430   1.727   3.821   3.076  0.5344  0.7129  0.6084
   71POPC   C25 9431   1.692   3.780   3.289 -0.3240  0.1545 -0.7307
   71POPC   H5R 9432   1.762   3.694   3.279  1.9303  1.8942 -0.7125
   71POPC   H5S 9433   1.599   3.752   3.343  0.5356 -0.9605  0.2267
   71POPC   C26 9434   1.768   3.897   3.359 -0.2171 -0.3151  0.2873
   71POPC   H6R 9435   1.714   3.994   3.357  1.9038  0.9592 -2.7996
   71POPC   H6S 9436   1.862   3.902   3.299  0.0202  0.6528  0.7080
   71POPC   C27 9437   1.807   3.862   3.503  0.1329 -0.0361  0.6539
   71POPC   H7R 9438   1.829   3.753   3.514 -0.7291 -0.0606  2.6581
   71POPC   H7S 9439   1.721   3.888   3.569  1.1061  1.5588  1.3380
   71POPC   C28 9440   1.923   3.941   3.564  0.0755 -0.3171 -0.4210
   71POPC   H8R 9441   1.894   4.049   3.561 -0.5906 -0.4448  0.7054
   71POPC   H8S 9442   2.011   3.942   3.497 -0.8647  1.2520 -1.6936
   71POPC   C29 9443   1.976   3.911   3.698 -0.3055  0.7022 -0.5974
   71POPC   H91 9444   2.041   3.822   3.701 -0.2528  0.7549  0.0264
   71POPC  C210 9445   1.949   3.965   3.810 -0.3855  0.2837 -0.0883
   71POPC  H101 9446   1.992   3.927   3.903  1.5302 -0.3873 -1.1927
   71POPC  C211 9447   1.855   4.082   3.826 -0.8973  0.1498  0.5075
   71POPC  H11R 9448   1.780   4.057   3.904 -0.1536  0.4705  1.3548
   71POPC  H11S 9449   1.796   4.101   3.735  2.2575  0.4852 -1.6345
   71POPC  C212 9450   1.921   4.217   3.855  0.0774  0.1769 -0.2113
   71POPC  H12R 9451   1.842   4.294   3.864  0.8221  1.0446 -0.8788
   71POPC  H12S 9452   1.986   4.240   3.768  0.5266 -3.0416 -0.8367
   71POPC  C213 9453   2.006   4.219   3.984  0.0847  0.2915  0.4165
   71POPC  H13R 9454   2.046   4.321   4.001 -1.0944  0.7712  0.4411
   71POPC  H13S 9455   2.096   4.155   3.974  0.3166  0.4983  1.1597
   71POPC  C214 9456   1.941   4.185   4.123  0.3927  0.2040 -0.2707
   71POPC  H14R 9457   2.017   4.170   4.203 -0.4454  1.7741  0.8727
   71POPC  H14S 9458   1.883   4.090   4.119 -0.1802  0.5893 -1.9822
   71POPC  C215 9459   1.849   4.296   4.180 -0.2541  0.2738 -0.3545
   71POPC  H15R 9460   1.758   4.289   4.116 -0.1094  0.6229 -0.6031
   71POPC  H15S 9461   1.899   4.393   4.161  0.4618 -0.1113 -0.4783
   71POPC  C216 9462   1.821   4.294   4.329 -0.4974  0.3568 -0.4414
   71POPC  H16R 9463   1.909   4.326   4.388 -0.8189  1.9009 -0.7690
   71POPC  H16S 9464   1.799   4.190   4.363  0.6639  0.3781  0.4459
   71POPC  C217 9465   1.708   4.391   4.352  0.2695  0.1388 -0.1482
   71POPC  H17R 9466   1.622   4.347   4.298  1.2006 -0.4110 -1.2237
   71POPC  H17S 9467   1.731   4.484   4.295 -2.4693  1.9735  1.4934
   71POPC  C218 9468   1.672   4.427   4.499  0.1218  0.1501  0.7776
   71POPC  H18R 9469   1.576   4.483   4.506  0.2592  0.2907  1.6481
   71POPC  H18S 9470   1.744   4.481   4.564 -0.3724 -0.3320  1.7540
   71POPC  H18T 9471   1.649   4.331   4.550 -1.7541  0.6097  0.8632
   71POPC   C33 9472   1.584   3.108   3.005 -0.1837 -0.7664 -0.2159
   71POPC   H3X 9473   1.598   3.023   3.076 -2.0615 -2.6177 -1.9437
   71POPC   H3Y 9474   1.505   3.161   3.061 -2.0622 -3.7429  0.1436
   71POPC   C34 9475   1.722   3.174   2.987  0.5119 -0.2790 -0.0730
   71POPC   H4X 9476   1.702   3.278   2.951 -2.8112 -0.5259  0.7327
   71POPC   H4Y 9477   1.790   3.125   2.914  0.2976  0.8713 -1.0799
   71POPC   C35 9478   1.805   3.173   3.114  0.4113 -0.8269 -0.2788
   71POPC   H5X 9479   1.894   3.240   3.121 -0.1551 -0.0944  0.0467
   71POPC   H5Y 9480   1.837   3.069   3.137  1.1208 -0.3977  0.7667
   71POPC   C36 9481   1.724   3.204   3.238  0.2224  0.6089 -0.0087
   71POPC   H6X 9482   1.663   3.120   3.278  1.4354 -1.0093 -1.4000
   71POPC   H6Y 9483   1.660   3.291   3.209 -0.2942  0.2259 -0.0318
   71POPC   C37 9484   1.806   3.258   3.358  0.1727 -0.0314  0.0740
   71POPC   H7X 9485   1.740   3.296   3.439  1.4565  1.1506  0.6121
   71POPC   H7Y 9486   1.857   3.353   3.331 -3.4660  2.0515 -0.1323
   71POPC   C38 9487   1.907   3.161   3.415  0.4004 -0.2469  0.5360
   71POPC   H8X 9488   1.996   3.155   3.349 -0.4066 -0.7046 -0.5310
   71POPC   H8Y 9489   1.869   3.058   3.433  1.2406 -0.5029  0.8812
   71POPC   C39 9490   1.968   3.209   3.550  0.1488 -0.2215 -0.1856
   71POPC   H9X 9491   1.995   3.317   3.545  0.6386 -0.2886  0.8053
   71POPC   H9Y 9492   2.066   3.157   3.548  0.0846 -0.3279 -0.8116
   71POPC  C310 9493   1.881   3.180   3.673  0.6030  0.1873  0.2849
   71POPC  H10X 9494   1.865   3.070   3.670 -1.3923  0.4386  0.1958
   71POPC  H10Y 9495   1.784   3.231   3.655 -0.3483 -2.2748 -2.0938
   71POPC  C311 9496   1.937   3.217   3.808  0.9545  0.2199 -0.1193
   71POPC  H11X 9497   2.027   3.159   3.839 -0.5996 -1.6313  1.1672
   71POPC  H11Y 9498   1.874   3.182   3.893  0.9454 -1.6097 -0.8350
   71POPC  C312 9499   1.946   3.371   3.829 -0.1735  0.2595  0.1511
   71POPC  H12X 9500   1.861   3.425   3.783  0.6009  0.7029 -0.8212
   71POPC  H12Y 9501   2.045   3.403   3.788  1.9279 -4.0258  1.1935
   71POPC  C313 9502   1.954   3.399   3.978  0.1362  1.0832  0.1058
   71POPC  H13X 9503   1.991   3.309   4.031 -1.1670  0.1137 -0.5913
   71POPC  H13Y 9504   1.845   3.414   3.994 -0.1971  0.1760 -1.1722
   71POPC  C314 9505   2.038   3.522   4.012  0.3880  0.4937  0.8629
   71POPC  H14X 9506   1.995   3.612   3.963  3.0220 -0.2316 -3.2255
   71POPC  H14Y 9507   2.141   3.496   3.979  0.0022  0.3140 -0.2270
   71POPC  C315 9508   2.044   3.556   4.166  0.5653 -0.3084  0.4525
   71POPC  H15X 9509   2.074   3.462   4.216 -1.1786 -0.1503  1.9047
   71POPC  H15Y 9510   1.948   3.593   4.207  1.2346 -0.6099  2.3792
   71POPC  C316 9511   2.143   3.664   4.185  0.2636  0.0764 -0.4705
   71POPC  H16X 9512   2.122   3.708   4.285 -1.2105  0.7854 -1.0558
   71POPC  H16Y 9513   2.129   3.744   4.108  0.1891 -0.7035 -1.2873
   71POPC  H16Z 9514   2.248   3.629   4.190  1.0669  2.4288  0.3302
   72POPC     N 9515   2.831   2.145   2.484  0.2937 -0.4179 -0.1012
   72POPC   C12 9516   2.687   2.157   2.536 -0.6457 -0.2244 -0.5443
   72POPC  H12A 9517   2.675   2.229   2.616 -1.6247  1.3698 -2.0407
   72POPC  H12B 9518   2.673   2.057   2.575  1.9227 -0.3305  0.2409
   72POPC   C13 9519   2.828   2.052   2.372  0.1692 -0.1033  0.2235
   72POPC  H13A 9520   2.921   2.051   2.318 -0.4884 -0.4878 -0.9228
   72POPC  H13B 9521   2.799   1.952   2.401 -0.0002 -0.3258 -0.6818
   72POPC  H13C 9522   2.748   2.083   2.306 -1.8425 -1.6639  1.7721
   72POPC   C14 9523   2.863   2.280   2.425 -0.4159  0.1194  0.0632
   72POPC  H14A 9524   2.957   2.270   2.372  1.0074  3.0777  1.7755
   72POPC  H14B 9525   2.787   2.311   2.354 -0.5479  0.2366  0.2543
   72POPC  H14C 9526   2.886   2.360   2.494  1.6619  0.0628 -0.4739
   72POPC   C15 9527   2.918   2.091   2.588 -0.3201 -0.0725 -0.2517
   72POPC  H15A 9528   2.935   2.159   2.671 -2.4572 -0.9109  0.9572
   72POPC  H15B 9529   3.015   2.073   2.544  1.6011  0.1421  3.4515
   72POPC  H15C 9530   2.877   2.005   2.640  2.1639 -2.0633 -1.3553
   72POPC   C11 9531   2.581   2.203   2.435  0.2494  0.2254 -0.1641
   72POPC  H11A 9532   2.482   2.189   2.485  0.6471 -0.8147  0.3704
   72POPC  H11B 9533   2.588   2.136   2.346  2.0425 -0.9302  0.7913
   72POPC     P 9534   2.543   2.459   2.484  0.3159 -0.3469 -0.2206
   72POPC   O13 9535   2.400   2.474   2.466 -0.1034  0.4246  0.2104
   72POPC   O14 9536   2.621   2.578   2.457 -0.4892  0.2044  0.1241
   72POPC   O12 9537   2.598   2.340   2.400 -0.3497  0.1824  0.6375
   72POPC   O11 9538   2.578   2.402   2.626  0.5870 -1.1340 -0.2675
   72POPC    C1 9539   2.474   2.386   2.730  0.9061 -0.6720  0.3804
   72POPC    HA 9540   2.510   2.326   2.816  0.4357  1.6407  2.3013
   72POPC    HB 9541   2.389   2.325   2.691  1.0268 -1.7078  1.6525
   72POPC    C2 9542   2.423   2.526   2.783  0.0469  0.1663 -0.3126
   72POPC    HS 9543   2.367   2.580   2.704 -0.3758  0.4246  0.1575
   72POPC   O21 9544   2.538   2.589   2.836 -0.3696  0.3856  0.0318
   72POPC   C21 9545   2.552   2.715   2.795  0.5868  0.3808 -0.1447
   72POPC   O22 9546   2.465   2.777   2.739 -0.4167 -0.8879  0.1272
   72POPC   C22 9547   2.684   2.769   2.843 -0.0553 -0.7302 -0.4789
   72POPC   H2R 9548   2.718   2.855   2.782  0.0625  1.8411  2.9592
   72POPC   H2S 9549   2.768   2.695   2.842 -0.4467 -1.1878 -0.0734
   72POPC    C3 9550   2.330   2.499   2.903 -0.2346 -0.0429  0.1002
   72POPC    HX 9551   2.225   2.471   2.885 -0.7223  0.3689  2.0628
   72POPC    HY 9552   2.307   2.600   2.943 -2.3422  0.1515 -1.4648
   72POPC   O31 9553   2.398   2.409   2.995  0.1336  0.1180  0.0206
   72POPC   C31 9554   2.329   2.307   3.036  0.2330  0.6247  0.8908
   72POPC   O32 9555   2.211   2.285   3.020 -0.9342 -0.3075 -0.0545
   72POPC   C32 9556   2.431   2.207   3.098  0.5722 -0.8258 -0.6623
   72POPC   H2X 9557   2.532   2.227   3.057  0.7684  1.6747  0.7833
   72POPC   H2Y 9558   2.395   2.104   3.084 -0.1835 -0.5401 -0.8602
   72POPC   C23 9559   2.678   2.819   2.988  0.3267 -0.2342  0.0816
   72POPC   H3R 9560   2.595   2.893   2.993  0.4350  0.0253 -1.4015
   72POPC   H3S 9561   2.772   2.875   3.008 -0.3218  0.6915  0.5842
   72POPC   C24 9562   2.658   2.707   3.087 -0.4808  0.1815 -0.3099
   72POPC   H4R 9563   2.714   2.616   3.056 -2.1187 -1.9980  2.6659
   72POPC   H4S 9564   2.550   2.681   3.085 -0.5155  0.3112 -0.0233
   72POPC   C25 9565   2.696   2.740   3.233  0.0421  0.0624 -0.7974
   72POPC   H5R 9566   2.631   2.825   3.264  0.6672 -0.1455  1.2688
   72POPC   H5S 9567   2.804   2.762   3.230  0.0043  0.1265 -2.8740
   72POPC   C26 9568   2.665   2.621   3.330  0.0072  0.6328 -0.2814
   72POPC   H6R 9569   2.717   2.528   3.298  1.3467  0.8267  1.1845
   72POPC   H6S 9570   2.561   2.589   3.307  0.8493 -0.2865 -3.1901
   72POPC   C27 9571   2.678   2.661   3.477  0.3983  0.4973 -0.2021
   72POPC   H7R 9572   2.628   2.759   3.493 -0.9103 -0.0370 -0.8619
   72POPC   H7S 9573   2.786   2.679   3.497  0.5647  1.3186 -1.6619
   72POPC   C28 9574   2.615   2.550   3.569 -0.5964  0.2125 -0.1149
   72POPC   H8R 9575   2.515   2.520   3.531  0.7007 -3.3614 -1.1574
   72POPC   H8S 9576   2.584   2.600   3.663  1.0758  3.8525 -1.2966
   72POPC   C29 9577   2.694   2.423   3.580  0.6430 -0.0735  0.3487
   72POPC   H91 9578   2.683   2.361   3.490  1.6738 -0.3088  0.3718
   72POPC  C210 9579   2.783   2.395   3.678 -0.8512  0.0258 -0.0904
   72POPC  H101 9580   2.831   2.296   3.689 -2.2168 -0.4188  2.9709
   72POPC  C211 9581   2.790   2.456   3.818 -0.2566  0.8501 -0.1876
   72POPC  H11R 9582   2.708   2.530   3.834  0.3789  1.4932  0.1535
   72POPC  H11S 9583   2.889   2.504   3.836  1.4332 -2.3933 -0.0300
   72POPC  C212 9584   2.779   2.354   3.931 -1.2136 -0.1104 -0.3191
   72POPC  H12R 9585   2.847   2.269   3.908  0.7112  1.2654  0.0511
   72POPC  H12S 9586   2.678   2.309   3.931 -1.3481  0.1707  0.5318
   72POPC  C213 9587   2.795   2.416   4.069 -0.0107 -0.1073 -0.3382
   72POPC  H13R 9588   2.713   2.491   4.070  0.5355  0.5031 -0.6219
   72POPC  H13S 9589   2.896   2.463   4.073  0.9293 -1.8792 -1.8022
   72POPC  C214 9590   2.775   2.315   4.183 -0.3234 -0.8708 -0.4540
   72POPC  H14R 9591   2.869   2.260   4.205 -1.2459 -3.2955 -2.1406
   72POPC  H14S 9592   2.697   2.239   4.162 -1.9473  0.4037  0.6864
   72POPC  C215 9593   2.725   2.389   4.307  0.0828 -0.2986 -0.5722
   72POPC  H15R 9594   2.650   2.467   4.281  0.4996  0.2786 -0.0924
   72POPC  H15S 9595   2.799   2.450   4.363  1.0807  0.7691 -2.9010
   72POPC  C216 9596   2.666   2.284   4.404  0.6285 -0.1626 -0.2347
   72POPC  H16R 9597   2.726   2.191   4.404  0.9461  0.0343  0.4386
   72POPC  H16S 9598   2.567   2.243   4.375  1.1093 -0.2121 -1.9325
   72POPC  C217 9599   2.648   2.320   4.560  0.1991  0.3139  0.7439
   72POPC  H17R 9600   2.750   2.325   4.605  0.3279  1.3486  0.3718
   72POPC  H17S 9601   2.581   2.248   4.611 -0.6001 -0.9559 -1.9306
   72POPC  C218 9602   2.585   2.461   4.598  0.4653  0.4464 -0.5353
   72POPC  H18R 9603   2.598   2.468   4.708 -3.1753  1.2322 -0.0460
   72POPC  H18S 9604   2.476   2.464   4.579  0.2350 -1.2035  0.3610
   72POPC  H18T 9605   2.646   2.540   4.548 -0.5005  1.8004  0.3589
   72POPC   C33 9606   2.453   2.232   3.248  0.0521  0.2061 -0.3033
   72POPC   H3X 9607   2.357   2.216   3.301  0.1607 -2.4570 -0.7328
   72POPC   H3Y 9608   2.491   2.336   3.257 -1.8997  0.9806 -0.6241
   72POPC   C34 9609   2.551   2.131   3.314 -0.2137 -0.1758 -0.5802
   72POPC   H4X 9610   2.582   2.162   3.416 -0.0101 -0.7335 -0.4648
   72POPC   H4Y 9611   2.636   2.148   3.244  3.1763 -2.0623  2.6793
   72POPC   C35 9612   2.506   1.984   3.328  0.5715  0.3225 -0.7413
   72POPC   H5X 9613   2.468   1.948   3.230  0.8296 -2.9117  0.2296
   72POPC   H5Y 9614   2.411   1.965   3.381  0.6565  0.2729 -0.6066
   72POPC   C36 9615   2.617   1.897   3.379 -0.0357 -0.2474  0.1683
   72POPC   H6X 9616   2.668   1.941   3.468  0.7572 -1.8145  0.5358
   72POPC   H6Y 9617   2.689   1.890   3.295 -0.3111 -0.6267 -0.0369
   72POPC   C37 9618   2.563   1.756   3.413  0.1047  0.2330  0.4967
   72POPC   H7X 9619   2.515   1.716   3.321 -2.9412 -0.1093  2.1087
   72POPC   H7Y 9620   2.481   1.760   3.487 -0.5913 -0.9084 -0.1779
   72POPC   C38 9621   2.671   1.661   3.467 -0.0472 -0.3757 -0.0014
   72POPC   H8X 9622   2.722   1.700   3.558  3.2091  0.4522 -2.0265
   72POPC   H8Y 9623   2.746   1.668   3.386  0.7879  0.1972  0.8045
   72POPC   C39 9624   2.624   1.513   3.493  0.7630 -0.0011 -0.9695
   72POPC   H9X 9625   2.594   1.491   3.388  0.4636 -1.3109 -0.6266
   72POPC   H9Y 9626   2.534   1.517   3.558  1.7245  2.0705  0.3534
   72POPC  C310 9627   2.723   1.408   3.531  0.6299  0.2816  0.2746
   72POPC  H10X 9628   2.769   1.401   3.633 -0.0080  1.5208  0.6693
   72POPC  H10Y 9629   2.820   1.424   3.479  0.3534  2.4057  0.2941
   72POPC  C311 9630   2.663   1.271   3.487 -0.5206  0.2273 -0.1583
   72POPC  H11X 9631   2.616   1.285   3.387  2.3100 -1.1934 -1.8172
   72POPC  H11Y 9632   2.584   1.241   3.558 -0.0446  2.2557  1.3083
   72POPC  C312 9633   2.775   1.158   3.472  0.1548 -0.5680 -0.3193
   72POPC  H12X 9634   2.850   1.183   3.395  0.6563 -2.4614 -0.4951
   72POPC  H12Y 9635   2.718   1.070   3.437 -0.2360 -0.4357 -0.0210
   72POPC  C313 9636   2.845   1.123   3.603 -0.6995  0.0038 -0.3150
   72POPC  H13X 9637   2.758   1.095   3.666  0.3644  0.0689  1.2343
   72POPC  H13Y 9638   2.874   1.222   3.645 -0.3389 -0.1190 -0.2760
   72POPC  C314 9639   2.957   1.022   3.591  0.3659 -0.0371 -0.3414
   72POPC  H14X 9640   3.010   0.991   3.683 -0.2975 -0.4366 -0.0917
   72POPC  H14Y 9641   3.030   1.057   3.515  1.6744  1.7484  1.6184
   72POPC  C315 9642   2.906   0.896   3.517  0.8322 -0.1468  0.2865
   72POPC  H15X 9643   2.897   0.929   3.412 -0.1451  1.8147  0.9404
   72POPC  H15Y 9644   2.804   0.869   3.552  2.2407 -2.9899  2.7462
   72POPC  C316 9645   3.000   0.775   3.517  0.2098  0.3005 -0.0339
   72POPC  H16X 9646   2.962   0.701   3.444  0.2353 -0.9193  1.1477
   72POPC  H16Y 9647   2.997   0.725   3.617 -1.8773  1.1960  0.4045
   72POPC  H16Z 9648   3.099   0.816   3.486 -0.5261  2.6571  0.4864
   73POPC     N 9649   3.944   1.855   2.442  0.2626 -0.6377  0.2524
   73POPC   C12 9650   4.047   1.897   2.545 -0.6272 -0.0910  0.0101
   73POPC  H12A 9651   4.144   1.862   2.513 -0.5370 -0.8972  1.1086
   73POPC  H12B 9652   4.028   1.842   2.635  1.1157 -0.7105  0.0258
   73POPC   C13 9653   3.967   1.937   2.319 -0.1704 -0.6384  0.0562
   73POPC  H13A 9654   4.067   1.920   2.282 -0.5091 -0.3260 -1.0289
   73POPC  H13B 9655   3.895   1.912   2.242  0.2207 -1.0322 -0.1856
   73POPC  H13C 9656   3.970   2.043   2.336 -0.3888 -0.7565  0.8985
   73POPC   C14 9657   3.952   1.706   2.414 -0.6617  0.2061 -0.8465
   73POPC  H14A 9658   3.922   1.647   2.499 -0.2047 -0.5120 -1.1691
   73POPC  H14B 9659   3.904   1.666   2.325 -2.6208 -2.0000  1.0682
   73POPC  H14C 9660   4.057   1.681   2.404 -1.0215 -1.0097 -1.8239
   73POPC   C15 9661   3.800   1.890   2.490 -0.3825 -0.2240 -0.3266
   73POPC  H15A 9662   3.790   1.994   2.516  2.0712 -0.1409  0.5088
   73POPC  H15B 9663   3.782   1.833   2.580  2.3650 -0.3257  0.2405
   73POPC  H15C 9664   3.725   1.854   2.421 -0.6566 -1.8602  0.7533
   73POPC   C11 9665   4.068   2.042   2.579  0.5777  0.1610 -0.9979
   73POPC  H11A 9666   4.122   2.037   2.676 -1.1465 -0.5818 -0.0442
   73POPC  H11B 9667   3.972   2.097   2.589 -0.5026 -1.6338 -1.1353
   73POPC     P 9668   4.155   2.241   2.425 -0.1331  0.1955 -0.2972
   73POPC   O13 9669   4.018   2.274   2.382 -0.4678  0.3561  0.1831
   73POPC   O14 9670   4.263   2.253   2.327 -0.1453  0.0718 -0.7502
   73POPC   O12 9671   4.147   2.094   2.477  0.6262  0.5398  0.0973
   73POPC   O11 9672   4.188   2.324   2.553  0.9153  0.0770 -0.1850
   73POPC    C1 9673   4.308   2.282   2.619  0.1562  0.2089 -0.3172
   73POPC    HA 9674   4.339   2.176   2.606 -0.4407  0.0504 -0.4597
   73POPC    HB 9675   4.296   2.296   2.728  2.9315  3.0067 -0.2291
   73POPC    C2 9676   4.421   2.375   2.584 -0.2266 -0.1838  0.5188
   73POPC    HS 9677   4.435   2.374   2.474 -0.2508 -0.3749  0.5174
   73POPC   O21 9678   4.545   2.327   2.645 -0.6758  0.1961 -0.1250
   73POPC   C21 9679   4.650   2.361   2.575  0.1306  0.3419  0.3578
   73POPC   O22 9680   4.647   2.414   2.464 -0.7952  0.1243 -0.2580
   73POPC   C22 9681   4.780   2.319   2.648 -0.0385  0.2576 -0.1100
   73POPC   H2R 9682   4.857   2.342   2.571 -1.5760 -0.2601 -1.8667
   73POPC   H2S 9683   4.789   2.211   2.672 -1.6150  0.3945  1.2919
   73POPC    C3 9684   4.391   2.527   2.616  0.3237  0.4067 -0.1549
   73POPC    HX 9685   4.299   2.555   2.560 -0.8519  0.7781  1.8336
   73POPC    HY 9686   4.468   2.592   2.569 -1.1046  1.3782 -1.2200
   73POPC   O31 9687   4.383   2.554   2.759  0.0102 -0.1248 -0.5619
   73POPC   C31 9688   4.325   2.664   2.793 -0.6126 -0.1148 -0.2676
   73POPC   O32 9689   4.289   2.745   2.708 -0.3196  0.2702  0.2809
   73POPC   C32 9690   4.315   2.686   2.950 -0.0918 -0.2874 -0.4091
   73POPC   H2X 9691   4.362   2.787   2.961 -2.9370  1.1120 -0.2386
   73POPC   H2Y 9692   4.378   2.617   3.011  0.4238  1.1110  0.7189
   73POPC   C23 9693   4.808   2.411   2.768 -1.1369 -0.1191  0.3687
   73POPC   H3R 9694   4.779   2.514   2.740  1.6550  0.2918 -1.3220
   73POPC   H3S 9695   4.918   2.407   2.783 -0.7894  0.4946 -1.7154
   73POPC   C24 9696   4.735   2.372   2.898  0.1821  0.7603 -0.0189
   73POPC   H4R 9697   4.763   2.273   2.939  0.2493  1.6056  2.1208
   73POPC   H4S 9698   4.625   2.376   2.882  0.3575  0.7156 -1.3374
   73POPC   C25 9699   4.780   2.463   3.015 -0.5500 -0.1374  0.6278
   73POPC   H5R 9700   4.750   2.569   3.007  0.9118  0.3458  1.0947
   73POPC   H5S 9701   4.891   2.476   3.016 -0.4307 -0.7763 -0.9667
   73POPC   C26 9702   4.747   2.390   3.148 -0.7127  0.1080  0.0973
   73POPC   H6R 9703   4.824   2.310   3.155  1.0228  1.6448 -0.5359
   73POPC   H6S 9704   4.643   2.354   3.162 -0.1844 -1.3239  0.4412
   73POPC   C27 9705   4.777   2.485   3.263 -0.3312 -0.1785 -0.5791
   73POPC   H7R 9706   4.879   2.528   3.257  0.2645 -1.1813  1.3011
   73POPC   H7S 9707   4.792   2.436   3.362  1.8267  3.2930  0.9884
   73POPC   C28 9708   4.672   2.593   3.289 -1.0443  0.0903  0.3408
   73POPC   H8R 9709   4.684   2.675   3.214  0.0467 -2.1634 -2.1321
   73POPC   H8S 9710   4.702   2.633   3.388 -1.1778  1.7226 -0.2495
   73POPC   C29 9711   4.528   2.548   3.300 -0.1510  0.2035 -0.7674
   73POPC   H91 9712   4.492   2.481   3.221 -0.1202  1.2091 -1.6500
   73POPC  C210 9713   4.434   2.580   3.396 -0.8298 -0.3154  0.2627
   73POPC  H101 9714   4.331   2.542   3.392 -0.6811 -0.8692  1.2529
   73POPC  C211 9715   4.445   2.685   3.502  0.3517 -1.0017  0.4623
   73POPC  H11R 9716   4.388   2.777   3.475  0.0247 -1.6920 -1.3743
   73POPC  H11S 9717   4.552   2.713   3.502  0.6701 -2.1440  0.9733
   73POPC  C212 9718   4.426   2.635   3.649 -0.1387 -0.8663 -0.0447
   73POPC  H12R 9719   4.482   2.544   3.680 -2.2033 -2.1168  0.1711
   73POPC  H12S 9720   4.321   2.606   3.667  0.0383 -1.9894 -0.7329
   73POPC  C213 9721   4.467   2.740   3.755  0.3891 -0.5170 -0.0721
   73POPC  H13R 9722   4.434   2.831   3.701  1.1844 -0.2169 -0.0704
   73POPC  H13S 9723   4.578   2.748   3.766  0.3609  2.4930 -0.9211
   73POPC  C214 9724   4.391   2.734   3.885  0.3693  0.2124  0.2294
   73POPC  H14R 9725   4.439   2.808   3.953 -1.1868  1.8639 -0.3816
   73POPC  H14S 9726   4.411   2.638   3.937  0.8278  0.9593  1.4966
   73POPC  C215 9727   4.242   2.766   3.867 -0.6346  0.2290 -0.0510
   73POPC  H15R 9728   4.188   2.698   3.798  1.1099 -1.1745 -0.0997
   73POPC  H15S 9729   4.247   2.870   3.827  0.4300  0.1475 -0.1602
   73POPC  C216 9730   4.181   2.783   4.006 -0.6329  0.3363  0.3254
   73POPC  H16R 9731   4.254   2.826   4.077 -0.0618  0.8555 -0.5607
   73POPC  H16S 9732   4.163   2.679   4.041  1.5758 -0.6159 -1.1240
   73POPC  C217 9733   4.044   2.849   4.010 -0.4799 -0.4338 -0.3950
   73POPC  H17R 9734   3.983   2.792   3.937 -0.6365 -0.0207 -0.5898
   73POPC  H17S 9735   4.051   2.954   3.975 -2.6890 -0.3148 -0.6329
   73POPC  C218 9736   3.977   2.844   4.145 -0.4434  0.0973  0.2986
   73POPC  H18R 9737   3.951   2.738   4.167  2.8979 -1.2456 -1.4302
   73POPC  H18S 9738   3.881   2.898   4.139 -0.5993 -0.3227 -1.9203
   73POPC  H18T 9739   4.045   2.874   4.228 -1.5386 -0.0895  1.2958
   73POPC   C33 9740   4.172   2.703   3.003 -0.2116  0.1718  0.4698
   73POPC   H3X 9741   4.121   2.783   2.947 -0.7048  0.8965  1.8888
   73POPC   H3Y 9742   4.183   2.738   3.108 -0.0246  0.4351  0.3645
   73POPC   C34 9743   4.103   2.565   3.014 -0.3718  0.0698  0.4462
   73POPC   H4X 9744   4.094   2.552   2.904  1.7238  2.8084 -0.1302
   73POPC   H4Y 9745   3.999   2.574   3.054 -0.4822 -1.9822  0.7189
   73POPC   C35 9746   4.168   2.443   3.089 -0.3964  0.3640  0.4013
   73POPC   H5X 9747   4.203   2.481   3.187 -0.3770 -2.2375  1.4757
   73POPC   H5Y 9748   4.266   2.406   3.052  1.0725  1.6572  2.7497
   73POPC   C36 9749   4.076   2.322   3.116  0.6093 -0.6396  0.2331
   73POPC   H6X 9750   4.131   2.228   3.137 -0.1957 -0.8263  1.6403
   73POPC   H6Y 9751   4.011   2.294   3.030  1.0365 -2.2599  0.4066
   73POPC   C37 9752   3.973   2.337   3.236  0.0772  0.2088 -0.0923
   73POPC   H7X 9753   3.914   2.245   3.251  1.1754 -0.3070  1.2837
   73POPC   H7Y 9754   3.905   2.420   3.205 -2.1806 -2.0000 -1.3834
   73POPC   C38 9755   4.039   2.384   3.364 -0.5304 -1.2922  0.5086
   73POPC   H8X 9756   4.092   2.481   3.351 -0.9613 -1.1708 -0.4329
   73POPC   H8Y 9757   4.104   2.305   3.408  0.8816 -0.3656  0.1543
   73POPC   C39 9758   3.933   2.407   3.471 -0.0131 -0.6954 -0.6274
   73POPC   H9X 9759   3.872   2.315   3.485 -0.4663 -0.2258  0.5623
   73POPC   H9Y 9760   3.874   2.494   3.437  1.0791  0.7135  0.9363
   73POPC  C310 9761   3.988   2.443   3.612 -0.4744 -0.7599  0.0326
   73POPC  H10X 9762   3.896   2.464   3.671 -1.6888 -1.4062 -1.5521
   73POPC  H10Y 9763   4.042   2.540   3.606 -0.0008 -1.0343 -0.1911
   73POPC  C311 9764   4.082   2.337   3.688  0.6349  0.2492  0.9285
   73POPC  H11X 9765   4.175   2.341   3.626 -0.3149  1.7532 -0.4935
   73POPC  H11Y 9766   4.046   2.232   3.681  1.2335  0.0768  0.2321
   73POPC  C312 9767   4.109   2.371   3.835  0.7029 -0.1659  0.3762
   73POPC  H12X 9768   4.018   2.350   3.896  1.0581  1.6510  1.5810
   73POPC  H12Y 9769   4.128   2.480   3.838 -1.5145  0.2674  0.8705
   73POPC  C313 9770   4.228   2.285   3.891 -0.0712  0.2763  0.4567
   73POPC  H13X 9771   4.322   2.317   3.843  0.2550  1.2645  1.6914
   73POPC  H13Y 9772   4.209   2.178   3.870  1.7551 -0.2808  1.4255
   73POPC  C314 9773   4.243   2.286   4.045 -0.8363 -0.7251  0.2492
   73POPC  H14X 9774   4.149   2.248   4.091 -1.2214  1.4333  1.3455
   73POPC  H14Y 9775   4.267   2.392   4.065  0.9436 -1.0739  0.1257
   73POPC  C315 9776   4.355   2.207   4.097  0.0033  0.4496 -0.3617
   73POPC  H15X 9777   4.448   2.254   4.059  0.7313  0.5369  1.4314
   73POPC  H15Y 9778   4.347   2.104   4.055 -0.4628  0.7917 -1.1359
   73POPC  C316 9779   4.352   2.205   4.252  0.4416 -0.2805 -0.2934
   73POPC  H16X 9780   4.379   2.307   4.286  0.4090 -0.1681 -0.6011
   73POPC  H16Y 9781   4.435   2.143   4.293  0.9865  1.3378  1.1783
   73POPC  H16Z 9782   4.252   2.174   4.290 -1.2590  3.1237 -1.5690
   74POPC     N 9783   4.337   1.332   1.837  0.8962 -0.3678  0.1864
   74POPC   C12 9784   4.323   1.469   1.910 -0.0354  0.7678 -0.3841
   74POPC  H12A 9785   4.220   1.498   1.895 -0.5359 -1.1408 -0.9275
   74POPC  H12B 9786   4.391   1.539   1.862  2.0379 -0.4842  0.5785
   74POPC   C13 9787   4.316   1.355   1.690  0.1696 -0.6986 -0.4784
   74POPC  H13A 9788   4.212   1.378   1.673  0.1699 -0.7229 -0.5107
   74POPC  H13B 9789   4.384   1.426   1.645  0.2053 -1.8358 -2.3322
   74POPC  H13C 9790   4.331   1.269   1.627 -0.6374 -0.6199 -0.7863
   74POPC   C14 9791   4.470   1.275   1.860  0.1646  0.7970 -0.0933
   74POPC  H14A 9792   4.498   1.182   1.813  0.8172  0.5575  0.7467
   74POPC  H14B 9793   4.545   1.351   1.844  0.6533  0.4223  0.4041
   74POPC  H14C 9794   4.481   1.271   1.967  1.3432  0.9289 -0.2051
   74POPC   C15 9795   4.245   1.236   1.885 -0.5825 -0.1312 -0.6201
   74POPC  H15A 9796   4.262   1.216   1.990  0.6105  1.1925 -0.5221
   74POPC  H15B 9797   4.255   1.141   1.835 -1.0869 -0.2901 -0.4211
   74POPC  H15C 9798   4.140   1.262   1.880 -0.8870 -0.0781  3.3015
   74POPC   C11 9799   4.341   1.481   2.065 -0.0820 -0.7826  1.2040
   74POPC  H11A 9800   4.275   1.408   2.118 -0.0706 -1.5342  0.2141
   74POPC  H11B 9801   4.320   1.583   2.104  1.8596  0.0890  0.1062
   74POPC     P 9802   4.598   1.551   2.078  0.0700  0.0714 -0.0858
   74POPC   O13 9803   4.559   1.680   2.017  0.3662 -0.7835  0.3933
   74POPC   O14 9804   4.721   1.492   2.018 -0.2565 -0.5063  0.0712
   74POPC   O12 9805   4.476   1.447   2.087 -0.4575  0.3008  0.1677
   74POPC   O11 9806   4.629   1.578   2.234  0.1573 -0.4936 -0.4420
   74POPC    C1 9807   4.587   1.500   2.341  0.1322  0.0165 -0.1238
   74POPC    HA 9808   4.658   1.493   2.425  0.6434  1.0054 -0.4613
   74POPC    HB 9809   4.546   1.400   2.312  0.7370 -0.0848 -0.6380
   74POPC    C2 9810   4.461   1.570   2.399  0.1176  0.1886 -0.2501
   74POPC    HS 9811   4.407   1.585   2.303  1.1504  1.3841 -0.6730
   74POPC   O21 9812   4.494   1.688   2.476  0.2272 -0.0570  0.4084
   74POPC   C21 9813   4.400   1.770   2.495  0.6783  1.2691 -0.2168
   74POPC   O22 9814   4.287   1.766   2.445 -0.2282 -0.1286  0.9722
   74POPC   C22 9815   4.440   1.879   2.590 -0.0560  0.4960  0.2024
   74POPC   H2R 9816   4.402   1.975   2.550  0.7781  0.3394 -1.0003
   74POPC   H2S 9817   4.550   1.882   2.580 -0.1961  0.1621 -1.7418
   74POPC    C3 9818   4.378   1.479   2.490 -0.2700 -0.5355 -0.4204
   74POPC    HX 9819   4.309   1.409   2.438 -3.3127  1.2887  0.8970
   74POPC    HY 9820   4.292   1.535   2.533 -1.9236 -2.5006 -1.0120
   74POPC   O31 9821   4.462   1.419   2.587  0.0119  0.0037 -0.1188
   74POPC   C31 9822   4.418   1.413   2.712 -0.7401 -0.0603 -0.0220
   74POPC   O32 9823   4.314   1.450   2.756  0.2970 -0.8343  0.2378
   74POPC   C32 9824   4.528   1.352   2.801 -0.2949 -0.0512 -0.5947
   74POPC   H2X 9825   4.613   1.324   2.735  0.1109  2.8744 -1.4531
   74POPC   H2Y 9826   4.490   1.252   2.831 -1.6081 -0.0211 -2.0021
   74POPC   C23 9827   4.392   1.846   2.735 -0.2536  0.1261  0.5708
   74POPC   H3R 9828   4.452   1.761   2.774 -0.5749 -0.8782 -1.0439
   74POPC   H3S 9829   4.285   1.816   2.743 -0.1284 -0.3128  0.6377
   74POPC   C24 9830   4.422   1.970   2.825  0.3749 -0.1684 -0.1576
   74POPC   H4R 9831   4.387   2.070   2.789  3.2161  0.8880 -0.2422
   74POPC   H4S 9832   4.531   1.984   2.814 -0.1341  3.5427 -2.2504
   74POPC   C25 9833   4.379   1.951   2.971 -0.1902 -0.1709  0.4490
   74POPC   H5R 9834   4.401   1.846   3.000 -1.5535 -0.8485 -0.8564
   74POPC   H5S 9835   4.268   1.949   2.981 -0.0232 -0.3168  3.3668
   74POPC   C26 9836   4.456   2.043   3.064 -1.4235 -0.0665 -0.2709
   74POPC   H6R 9837   4.435   2.149   3.041 -2.9202 -0.3537 -0.3354
   74POPC   H6S 9838   4.565   2.036   3.044 -1.4692 -2.3127  0.0153
   74POPC   C27 9839   4.429   2.030   3.211 -0.2359  0.0432  0.5192
   74POPC   H7R 9840   4.467   1.937   3.260  1.1176  0.4049  0.2067
   74POPC   H7S 9841   4.318   2.038   3.212 -0.1496  1.5149  0.8766
   74POPC   C28 9842   4.486   2.151   3.291  0.5256  0.3468  0.5323
   74POPC   H8R 9843   4.459   2.246   3.241  0.1840 -0.5446 -1.0593
   74POPC   H8S 9844   4.597   2.143   3.289  0.5133  0.0030  1.0997
   74POPC   C29 9845   4.427   2.149   3.430  0.5170 -0.0139 -0.0271
   74POPC   H91 9846   4.318   2.133   3.436  0.7707 -1.2582  3.2692
   74POPC  C210 9847   4.483   2.199   3.540  0.3800 -0.1026 -0.0456
   74POPC  H101 9848   4.428   2.188   3.635  0.2898 -0.2765 -0.1158
   74POPC  C211 9849   4.625   2.240   3.543 -0.6066  0.3646 -0.1598
   74POPC  H11R 9850   4.626   2.332   3.481  0.6527 -0.1531 -0.9555
   74POPC  H11S 9851   4.691   2.172   3.484 -0.6121  1.1146 -1.0515
   74POPC  C212 9852   4.685   2.278   3.682  0.6690  0.4906  0.5569
   74POPC  H12R 9853   4.628   2.368   3.713  2.3253  1.3834  1.0870
   74POPC  H12S 9854   4.790   2.311   3.670  0.7120 -0.2181 -1.3544
   74POPC  C213 9855   4.677   2.171   3.793 -0.7462  0.2530 -0.2957
   74POPC  H13R 9856   4.743   2.086   3.765 -0.2597  1.5101 -3.2507
   74POPC  H13S 9857   4.575   2.127   3.800 -0.7849  0.2394 -0.9218
   74POPC  C214 9858   4.716   2.224   3.938  0.4498 -0.4419  0.6253
   74POPC  H14R 9859   4.641   2.300   3.965 -0.8047 -1.2495 -0.4532
   74POPC  H14S 9860   4.815   2.275   3.941  0.2158  0.4251 -2.7903
   74POPC  C215 9861   4.721   2.112   4.033  0.3389  1.1975  0.5898
   74POPC  H15R 9862   4.774   2.018   4.004  1.1293  1.5192  0.9731
   74POPC  H15S 9863   4.614   2.081   4.041  0.5329 -1.0575 -3.1802
   74POPC  C216 9864   4.782   2.133   4.173 -0.3594  0.1183  0.4359
   74POPC  H16R 9865   4.735   2.226   4.211 -1.2847  0.3125 -1.0787
   74POPC  H16S 9866   4.891   2.152   4.159 -0.1337 -2.2154 -1.7538
   74POPC  C217 9867   4.791   2.011   4.261  0.2257  0.1147 -0.0339
   74POPC  H17R 9868   4.842   2.047   4.353  0.3466  0.5885 -0.2801
   74POPC  H17S 9869   4.849   1.927   4.219 -0.9348 -0.8786  0.3028
   74POPC  C218 9870   4.652   1.959   4.306  0.3170 -1.2657  0.7426
   74POPC  H18R 9871   4.585   1.991   4.223  0.4604 -0.2877  0.9958
   74POPC  H18S 9872   4.622   2.002   4.404  2.2960 -2.7892  2.1043
   74POPC  H18T 9873   4.651   1.848   4.305  0.3559 -1.2719  1.2514
   74POPC   C33 9874   4.561   1.448   2.922  0.4175 -0.9452 -0.3116
   74POPC   H3X 9875   4.579   1.554   2.893 -0.3463 -0.1092  2.0836
   74POPC   H3Y 9876   4.646   1.398   2.973  0.7923 -0.3841 -0.3652
   74POPC   C34 9877   4.454   1.451   3.033 -0.3757 -0.2440  1.3432
   74POPC   H4X 9878   4.354   1.501   3.023 -0.1459 -0.2421 -2.4583
   74POPC   H4Y 9879   4.508   1.508   3.112 -3.2818  2.6390  1.4597
   74POPC   C35 9880   4.409   1.313   3.095 -0.2983 -0.7134 -0.4235
   74POPC   H5X 9881   4.495   1.243   3.105  1.5770  1.7329  1.8116
   74POPC   H5Y 9882   4.349   1.251   3.024 -0.1467 -0.5757 -0.6765
   74POPC   C36 9883   4.330   1.318   3.223  0.0242 -0.4144 -0.5926
   74POPC   H6X 9884   4.262   1.405   3.229  1.6175  0.8361  0.3683
   74POPC   H6Y 9885   4.401   1.320   3.309 -1.2846 -0.3078  0.5039
   74POPC   C37 9886   4.256   1.183   3.250  0.7355 -0.0528 -0.2393
   74POPC   H7X 9887   4.190   1.153   3.165 -0.8037 -1.3358  1.3477
   74POPC   H7Y 9888   4.197   1.194   3.343 -0.4505  1.3674 -1.1168
   74POPC   C38 9889   4.343   1.060   3.272  0.0947  0.3861  0.1406
   74POPC   H8X 9890   4.381   1.065   3.377  0.8306  1.2587 -0.1468
   74POPC   H8Y 9891   4.435   1.076   3.212  0.7689 -0.9344  0.7827
   74POPC   C39 9892   4.276   0.923   3.244 -0.0953 -0.2966 -0.5206
   74POPC   H9X 9893   4.229   0.903   3.145 -0.5427 -1.0929 -0.1557
   74POPC   H9Y 9894   4.197   0.913   3.322  1.9308 -0.1035  1.6704
   74POPC  C310 9895   4.371   0.814   3.282  0.6930  0.9546 -0.0518
   74POPC  H10X 9896   4.479   0.838   3.281  0.9920 -0.0650 -3.3541
   74POPC  H10Y 9897   4.358   0.732   3.209 -2.7153  0.3808  1.0387
   74POPC  C311 9898   4.347   0.746   3.412 -0.6259 -0.4189  0.2956
   74POPC  H11X 9899   4.253   0.689   3.428  0.6744 -2.3380  1.6034
   74POPC  H11Y 9900   4.356   0.828   3.487  1.8882  0.2761 -0.6625
   74POPC  C312 9901   4.461   0.650   3.437 -0.0411  1.1860  0.0747
   74POPC  H12X 9902   4.552   0.710   3.415  0.7275 -0.8960 -2.9446
   74POPC  H12Y 9903   4.453   0.560   3.373  0.0190  2.4244 -1.7620
   74POPC  C313 9904   4.480   0.610   3.586 -0.7499 -0.1447 -0.0637
   74POPC  H13X 9905   4.380   0.576   3.622 -1.2733  0.9393 -0.4707
   74POPC  H13Y 9906   4.514   0.695   3.649  0.7449 -0.3371 -0.5812
   74POPC  C314 9907   4.566   0.485   3.595 -0.2685 -0.0953  0.0988
   74POPC  H14X 9908   4.672   0.515   3.579 -0.4196  0.0614 -0.6419
   74POPC  H14Y 9909   4.532   0.411   3.520  2.2571 -0.2276 -1.0096
   74POPC  C315 9910   4.570   0.412   3.725 -1.4027  0.1240 -0.2777
   74POPC  H15X 9911   4.464   0.396   3.755 -2.1226 -0.7708 -2.9937
   74POPC  H15Y 9912   4.622   0.478   3.798  0.8583  0.5017 -2.1144
   74POPC  C316 9913   4.634   0.275   3.710  0.0744 -1.1349 -0.2823
   74POPC  H16X 9914   4.658   0.249   3.815 -1.1418  1.7337  0.8148
   74POPC  H16Y 9915   4.730   0.295   3.656 -0.8408  0.5685 -1.3723
   74POPC  H16Z 9916   4.578   0.190   3.665  0.9985 -1.7319 -0.3316
   75POPC     N 9917   3.698   4.061   1.829 -0.1758 -0.1655 -0.7557
   75POPC   C12 9918   3.638   4.121   1.948 -0.2380  0.2146 -0.2388
   75POPC  H12A 9919   3.694   4.093   2.036 -1.3649  1.8905  1.1008
   75POPC  H12B 9920   3.540   4.080   1.968  0.0087 -0.0118  0.5474
   75POPC   C13 9921   3.690   3.911   1.821  0.6257 -0.6695 -0.0626
   75POPC  H13A 9922   3.587   3.881   1.808 -0.1277  0.6032  2.3875
   75POPC  H13B 9923   3.740   3.874   1.732  0.0422 -0.1302 -0.6205
   75POPC  H13C 9924   3.719   3.868   1.916 -2.3815 -2.8362  0.0179
   75POPC   C14 9925   3.648   4.122   1.708 -1.0396  0.5991 -0.2241
   75POPC  H14A 9926   3.544   4.093   1.697 -0.7652 -0.3105 -0.5089
   75POPC  H14B 9927   3.646   4.229   1.724 -1.3671  0.6114 -0.3335
   75POPC  H14C 9928   3.713   4.089   1.629 -1.2849 -0.2260 -0.0886
   75POPC   C15 9929   3.849   4.089   1.838 -0.1577  0.0826 -0.3462
   75POPC  H15A 9930   3.890   4.072   1.739 -0.1760  0.0105 -0.3418
   75POPC  H15B 9931   3.891   4.030   1.918 -0.9640 -0.8498 -0.5842
   75POPC  H15C 9932   3.866   4.193   1.858 -0.1036 -0.3171  1.9218
   75POPC   C11 9933   3.641   4.274   1.960 -0.5053 -0.0311 -0.2847
   75POPC  H11A 9934   3.578   4.326   1.884 -2.9288 -0.2497  1.4457
   75POPC  H11B 9935   3.747   4.302   1.945 -0.3751 -0.5070 -0.2993
   75POPC     P 9936   3.445   4.290   2.144  0.0263 -0.2683 -0.1632
   75POPC   O13 9937   3.367   4.195   2.064  0.1379 -0.7061  0.4785
   75POPC   O14 9938   3.393   4.431   2.165 -0.1043  0.0787  0.5711
   75POPC   O12 9939   3.594   4.293   2.087  0.4731  0.1647 -0.4711
   75POPC   O11 9940   3.459   4.242   2.296 -0.3104  0.7148  0.0601
   75POPC    C1 9941   3.528   4.322   2.390 -0.0584  0.2170  0.9395
   75POPC    HA 9942   3.503   4.429   2.377 -1.8493 -0.2241  0.3916
   75POPC    HB 9943   3.635   4.313   2.363 -0.0540  3.4152 -0.4811
   75POPC    C2 9944   3.496   4.271   2.535  0.2885  0.6704  0.0067
   75POPC    HS 9945   3.393   4.295   2.571 -0.8484 -1.6487 -1.4074
   75POPC   O21 9946   3.592   4.319   2.626 -0.4205  0.3926 -0.2452
   75POPC   C21 9947   3.606   4.453   2.648 -0.1472  0.4323 -0.5917
   75POPC   O22 9948   3.533   4.542   2.616 -0.1053 -0.4916 -0.4365
   75POPC   C22 9949   3.738   4.467   2.728 -0.1297  0.4859  0.1874
   75POPC   H2R 9950   3.720   4.453   2.837 -1.0602  2.1483  0.2932
   75POPC   H2S 9951   3.754   4.573   2.701  0.1309  0.1173 -1.1596
   75POPC    C3 9952   3.499   4.115   2.543 -0.1906  0.1273  0.6757
   75POPC    HX 9953   3.598   4.077   2.511  0.0986  1.0225  0.4849
   75POPC    HY 9954   3.425   4.076   2.469 -1.9770 -0.4430  2.6277
   75POPC   O31 9955   3.472   4.061   2.676 -0.7081 -0.0978 -0.8233
   75POPC   C31 9956   3.346   4.068   2.714  0.2698  0.1678  0.4550
   75POPC   O32 9957   3.255   4.091   2.631  0.1172 -0.0813 -0.3111
   75POPC   C32 9958   3.319   4.020   2.854  0.0556 -0.7176 -0.4437
   75POPC   H2X 9959   3.280   3.917   2.848  0.9649 -1.1591  0.9081
   75POPC   H2Y 9960   3.240   4.085   2.899 -1.0555 -2.4156  0.1369
   75POPC   C23 9961   3.852   4.390   2.664  0.4632 -0.0670 -0.2933
   75POPC   H3R 9962   3.867   4.425   2.560  0.1390 -0.1165 -0.3568
   75POPC   H3S 9963   3.839   4.280   2.664 -0.1580 -0.0114 -1.4394
   75POPC   C24 9964   3.988   4.414   2.737 -0.4905  0.1665 -0.0362
   75POPC   H4R 9965   3.983   4.520   2.770 -0.7768 -0.7367  3.1562
   75POPC   H4S 9966   4.069   4.392   2.664 -1.3499 -0.5000 -0.8338
   75POPC   C25 9967   4.010   4.323   2.855  0.0740 -0.2651  0.3089
   75POPC   H5R 9968   4.025   4.219   2.819  1.1135  0.5458 -1.7991
   75POPC   H5S 9969   3.922   4.319   2.922  0.7241  0.7552  1.2655
   75POPC   C26 9970   4.126   4.354   2.935 -0.1286  0.0207 -0.3262
   75POPC   H6R 9971   4.208   4.385   2.867 -0.1527  2.8433  0.7819
   75POPC   H6S 9972   4.164   4.267   2.993 -2.3295 -2.1209 -1.8765
   75POPC   C27 9973   4.112   4.466   3.046 -0.6596 -0.0740 -0.5902
   75POPC   H7R 9974   4.053   4.543   2.994  0.8716  0.6980 -1.2438
   75POPC   H7S 9975   4.212   4.511   3.065 -2.0184  2.6360  0.5693
   75POPC   C28 9976   4.041   4.416   3.181 -0.2589 -0.2325  1.0114
   75POPC   H8R 9977   4.083   4.317   3.209  0.6529 -0.1798 -0.1056
   75POPC   H8S 9978   3.936   4.392   3.157  0.3360 -0.8685 -1.1916
   75POPC   C29 9979   4.056   4.524   3.279  0.2486  0.5763 -0.4400
   75POPC   H91 9980   4.045   4.629   3.247 -0.5373  1.2449  1.8694
   75POPC  C210 9981   4.072   4.512   3.411 -0.1155  0.1067 -0.6029
   75POPC  H101 9982   4.105   4.597   3.473  0.3914 -1.7294  1.8203
   75POPC  C211 9983   4.080   4.383   3.485 -0.2737  0.4305 -0.1895
   75POPC  H11R 9984   4.079   4.294   3.417  1.0969  0.3061 -0.0601
   75POPC  H11S 9985   3.987   4.377   3.546  0.3651 -1.2250  0.6682
   75POPC  C212 9986   4.211   4.384   3.579  0.2723 -0.0144 -0.0319
   75POPC  H12R 9987   4.216   4.486   3.624  0.2062 -0.5804  1.3042
   75POPC  H12S 9988   4.295   4.362   3.510 -2.5864 -2.7303 -3.0469
   75POPC  C213 9989   4.215   4.292   3.708 -0.0764 -0.0529 -0.5625
   75POPC  H13R 9990   4.304   4.320   3.768 -0.7512  0.0005  0.4409
   75POPC  H13S 9991   4.231   4.188   3.673 -0.9700 -0.4182  0.0843
   75POPC  C214 9992   4.087   4.290   3.791  0.2356  0.3090 -0.1687
   75POPC  H14R 9993   4.006   4.244   3.731 -2.0132 -0.0826  2.9643
   75POPC  H14S 9994   4.057   4.392   3.821 -0.4041 -0.3234  1.4213
   75POPC  C215 9995   4.094   4.206   3.920  0.1265  0.0465 -0.1433
   75POPC  H15R 9996   4.083   4.097   3.903  1.1098 -0.3510  1.5476
   75POPC  H15S 9997   4.010   4.233   3.988 -1.3680 -2.7222 -0.7525
   75POPC  C216 9998   4.215   4.222   4.014 -0.0022  1.0252  0.5550
   75POPC  H16R 9999   4.235   4.330   4.030 -2.2558  1.8284 -1.4471
   75POPC  H16S10000   4.304   4.181   3.962  0.2825  1.2846  0.8328
   75POPC  C21710001   4.195   4.136   4.145 -0.2960 -0.3464  0.2154
   75POPC  H17R10002   4.299   4.135   4.185  1.2398  2.4783 -3.1983
   75POPC  H17S10003   4.165   4.034   4.111 -0.3980 -0.3579  0.3401
   75POPC  C21810004   4.104   4.193   4.254 -0.1164  0.2732  0.8188
   75POPC  H18R10005   4.143   4.283   4.306 -1.0618  1.8058 -1.0058
   75POPC  H18S10006   4.089   4.126   4.341  4.2271  1.5701  2.8714
   75POPC  H18T10007   4.004   4.218   4.211 -0.9633 -2.6442  0.8942
   75POPC   C3310008   3.445   4.028   2.949  0.1573 -0.0935 -0.6768
   75POPC   H3X10009   3.532   3.970   2.912 -0.1201 -2.6703  2.2860
   75POPC   H3Y10010   3.428   3.976   3.046  0.8855 -0.0885 -0.5411
   75POPC   C3410011   3.476   4.182   2.975  0.0090 -0.3787  0.2970
   75POPC   H4X10012   3.393   4.211   3.041 -0.8726  1.9109 -1.6738
   75POPC   H4Y10013   3.473   4.239   2.880  1.2096 -0.6139  0.0972
   75POPC   C3510014   3.605   4.223   3.056  0.1488 -0.2385  0.1332
   75POPC   H5X10015   3.697   4.244   2.999  1.0156  2.2766  2.2707
   75POPC   H5Y10016   3.622   4.134   3.120 -0.6948 -0.9001 -0.5282
   75POPC   C3610017   3.588   4.345   3.147  0.1921  0.0139  0.2677
   75POPC   H6X10018   3.488   4.391   3.131  0.1424 -0.0038  0.5344
   75POPC   H6Y10019   3.671   4.417   3.130  0.5671  0.2506  2.7905
   75POPC   C3710020   3.594   4.310   3.301  0.5227 -0.1068 -0.1403
   75POPC   H7X10021   3.692   4.266   3.328  0.3158  0.3015  1.3561
   75POPC   H7Y10022   3.514   4.234   3.317  0.9999 -0.6318 -0.2219
   75POPC   C3810023   3.570   4.433   3.392 -0.2123 -0.6268 -0.3879
   75POPC   H8X10024   3.477   4.487   3.363 -0.7055 -2.0248 -1.5070
   75POPC   H8Y10025   3.657   4.502   3.381 -0.4831 -0.5618 -2.5838
   75POPC   C3910026   3.544   4.391   3.537  0.3478  0.8453 -0.6098
   75POPC   H9X10027   3.606   4.305   3.568 -0.6852 -0.0151 -0.8909
   75POPC   H9Y10028   3.437   4.363   3.536  0.6852 -0.9302  2.0345
   75POPC  C31010029   3.564   4.501   3.635 -0.6694  0.0275 -0.2482
   75POPC  H10X10030   3.553   4.601   3.588 -0.8386  0.1756  0.0999
   75POPC  H10Y10031   3.666   4.490   3.679 -0.4041  1.4944 -0.4228
   75POPC  C31110032   3.481   4.491   3.761 -0.6117 -0.0304  0.2893
   75POPC  H11X10033   3.481   4.387   3.800 -0.5529  0.0245  0.4381
   75POPC  H11Y10034   3.373   4.509   3.743 -0.2140  0.8788 -1.4681
   75POPC  C31210035   3.528   4.588   3.872 -0.7534  0.3662  0.2576
   75POPC  H12X10036   3.526   4.691   3.828 -0.7068  0.4438  0.4375
   75POPC  H12Y10037   3.629   4.551   3.900 -1.2393 -1.4686 -0.2681
   75POPC  C31310038   3.450   4.580   4.010  0.3958 -0.4623  0.2002
   75POPC  H13X10039   3.507   4.628   4.092 -2.6186  4.6084 -0.2434
   75POPC  H13Y10040   3.438   4.470   4.012 -0.8556 -0.3751 -1.0071
   75POPC  C31410041   3.313   4.649   4.006 -0.5261  0.5729 -0.6993
   75POPC  H14X10042   3.264   4.607   3.916 -2.8529 -0.9047  1.1233
   75POPC  H14Y10043   3.332   4.759   4.003  2.4278  0.1803  0.4800
   75POPC  C31510044   3.228   4.617   4.126  0.4146  0.2367 -0.3819
   75POPC  H15X10045   3.271   4.667   4.215  3.1894 -1.9407 -0.3826
   75POPC  H15Y10046   3.222   4.506   4.128 -0.7815  0.2935  0.6436
   75POPC  C31610047   3.084   4.665   4.108 -0.5565  0.3036 -0.2362
   75POPC  H16X10048   3.075   4.774   4.089  0.3140  0.4766  0.3054
   75POPC  H16Y10049   3.019   4.650   4.197 -0.7877  1.0016 -0.2793
   75POPC  H16Z10050   3.046   4.606   4.022 -2.0844  0.2561  0.4397
   76POPC     N10051   2.799   5.129   1.970  0.2781  0.1048  0.1489
   76POPC   C1210052   2.875   5.186   2.091  0.8045 -0.2376  0.0325
   76POPC  H12A10053   2.817   5.255   2.150  1.8042 -0.8561  1.8181
   76POPC  H12B10054   2.959   5.246   2.058  0.8869 -0.9820 -1.1673
   76POPC   C1310055   2.688   5.039   2.019 -0.6174  0.8024 -0.0753
   76POPC  H13A10056   2.620   5.101   2.076 -0.9120 -0.3620  0.9040
   76POPC  H13B10057   2.635   4.990   1.939 -0.1392 -0.5298  0.3793
   76POPC  H13C10058   2.728   4.965   2.087 -0.5189 -0.8264 -1.8405
   76POPC   C1410059   2.734   5.236   1.887  0.2722 -0.4397  0.5939
   76POPC  H14A10060   2.793   5.294   1.818  0.0876 -0.3229  0.5329
   76POPC  H14B10061   2.665   5.183   1.824 -1.1921  1.3737  0.6082
   76POPC  H14C10062   2.671   5.303   1.943  0.4165 -0.5545  0.8973
   76POPC   C1510063   2.896   5.071   1.875 -1.1150  0.4116 -0.2100
   76POPC  H15A10064   2.980   5.136   1.854  0.3569 -1.1014  0.7394
   76POPC  H15B10065   2.859   5.033   1.781  1.2577 -0.7088 -0.7683
   76POPC  H15C10066   2.948   4.995   1.932  0.1879  0.7682 -0.8731
   76POPC   C1110067   2.922   5.080   2.196 -0.1090 -0.5765 -0.7967
   76POPC  H11A10068   2.995   5.133   2.260  0.4072 -1.1229 -0.9258
   76POPC  H11B10069   2.983   5.001   2.146  0.2228 -2.7119  2.6488
   76POPC     P10070   2.742   5.117   2.381 -0.3950  0.1288  0.1233
   76POPC   O1310071   2.600   5.115   2.360  0.0561 -0.3522  0.3118
   76POPC   O1410072   2.802   5.251   2.379  0.4662  0.2293 -0.1000
   76POPC   O1210073   2.817   5.029   2.274  0.2273  0.3245 -0.0360
   76POPC   O1110074   2.777   5.037   2.512 -0.8797 -0.1657 -0.3132
   76POPC    C110075   2.910   5.015   2.544  0.0866 -0.1840  0.9513
   76POPC    HA10076   2.976   5.094   2.501  0.6940 -0.2885  1.6765
   76POPC    HB10077   2.946   4.916   2.510 -0.0740  0.4578 -1.2257
   76POPC    C210078   2.928   5.043   2.690 -0.9792 -0.7202 -0.2756
   76POPC    HS10079   3.030   5.007   2.718 -0.1001  0.9877 -1.1470
   76POPC   O2110080   2.825   4.988   2.773 -0.7469 -0.0957 -0.4341
   76POPC   C2110081   2.831   4.860   2.805  0.6452 -0.4309  0.1240
   76POPC   O2210082   2.918   4.782   2.760  0.3540  0.0670  0.5532
   76POPC   C2210083   2.713   4.817   2.893 -0.5185 -0.5883  0.6006
   76POPC   H2R10084   2.624   4.800   2.829 -1.5596  2.5879  1.0206
   76POPC   H2S10085   2.689   4.909   2.950  3.8742  1.4293 -0.3899
   76POPC    C310086   2.939   5.199   2.720  0.1574 -0.5888 -1.0664
   76POPC    HX10087   2.853   5.247   2.669  1.2626 -0.2045 -2.6778
   76POPC    HY10088   3.032   5.247   2.682 -0.1132  2.8523  2.1368
   76POPC   O3110089   2.946   5.228   2.868  0.0483  0.4167  0.5376
   76POPC   C3110090   2.838   5.259   2.923 -0.1176  0.0579  0.4780
   76POPC   O3210091   2.726   5.276   2.869 -0.3483  0.6804  0.4171
   76POPC   C3210092   2.847   5.276   3.075 -0.4283 -0.0243  0.3053
   76POPC   H2X10093   2.914   5.364   3.088 -0.4427 -0.2487  2.1809
   76POPC   H2Y10094   2.907   5.196   3.125  2.1863  1.2825 -0.5724
   76POPC   C2310095   2.744   4.694   2.985  0.1825  0.9931 -0.8673
   76POPC   H3R10096   2.662   4.685   3.060  0.8036 -1.5024 -0.4032
   76POPC   H3S10097   2.833   4.724   3.044 -0.5574  0.7930  0.3819
   76POPC   C2410098   2.756   4.563   2.909  0.5002 -0.7013  0.4726
   76POPC   H4R10099   2.848   4.559   2.847  0.8570  0.0985  0.9422
   76POPC   H4S10100   2.668   4.545   2.843 -0.2698  0.6693  1.0935
   76POPC   C2510101   2.763   4.439   2.999 -0.2578  0.8818  0.9393
   76POPC   H5R10102   2.706   4.357   2.950  0.8455  0.1130  0.9211
   76POPC   H5S10103   2.712   4.445   3.098 -0.2722 -1.1525  1.1071
   76POPC   C2610104   2.907   4.390   3.017  0.2787  0.0655 -0.0700
   76POPC   H6R10105   2.931   4.346   2.918 -1.4639  0.9563 -0.9317
   76POPC   H6S10106   2.907   4.312   3.096 -1.5065  1.0047  0.9225
   76POPC   C2710107   3.013   4.493   3.046 -0.6876  0.3337 -0.7341
   76POPC   H7R10108   2.978   4.546   3.137 -2.0932 -0.6922 -0.6573
   76POPC   H7S10109   3.017   4.560   2.957  2.0792 -1.4926 -2.1262
   76POPC   C2810110   3.148   4.426   3.076  0.4180  0.5590  0.0189
   76POPC   H8R10111   3.179   4.377   2.981 -0.1475 -0.0364  0.1377
   76POPC   H8S10112   3.128   4.350   3.154 -2.0286  0.6107 -0.5022
   76POPC   C2910113   3.258   4.517   3.122  0.1796 -0.5610 -0.0282
   76POPC   H9110114   3.260   4.513   3.232  1.0195 -1.8669 -0.0687
   76POPC  C21010115   3.335   4.596   3.044  0.2427 -0.4077  0.5051
   76POPC  H10110116   3.408   4.655   3.102 -0.8036  0.2082  1.2349
   76POPC  C21110117   3.326   4.603   2.892 -0.6964  0.1529  0.5527
   76POPC  H11R10118   3.275   4.513   2.850  1.9206 -1.6450  0.9968
   76POPC  H11S10119   3.427   4.592   2.848 -0.2613 -2.1378  1.9425
   76POPC  C21210120   3.266   4.725   2.816 -0.1839  0.0104 -0.0285
   76POPC  H12R10121   3.161   4.749   2.841 -0.1714 -2.0262  2.3719
   76POPC  H12S10122   3.271   4.685   2.713 -0.9341 -1.6618  0.5412
   76POPC  C21310123   3.361   4.850   2.827  0.6210  0.1546  0.2255
   76POPC  H13R10124   3.355   4.910   2.733  0.0561 -0.6237 -0.2539
   76POPC  H13S10125   3.467   4.817   2.827  1.0346  1.4439  0.7393
   76POPC  C21410126   3.339   4.939   2.952  0.2956 -0.3683 -0.4284
   76POPC  H14R10127   3.430   5.001   2.960 -0.6739  1.0228  0.1294
   76POPC  H14S10128   3.328   4.874   3.041 -0.3109 -0.5889 -0.6565
   76POPC  C21510129   3.222   5.039   2.934 -0.0385 -0.1641  0.1357
   76POPC  H15R10130   3.126   4.988   2.911  0.8398 -0.8671 -2.2473
   76POPC  H15S10131   3.236   5.099   2.841 -2.8994  1.9069  0.9000
   76POPC  C21610132   3.217   5.141   3.047  0.0340 -0.3774  0.5936
   76POPC  H16R10133   3.143   5.220   3.025  0.5016  0.4025  1.7423
   76POPC  H16S10134   3.313   5.197   3.054  0.3713 -0.8925  0.2099
   76POPC  C21710135   3.195   5.080   3.183 -0.2837 -0.3644 -0.0974
   76POPC  H17R10136   3.293   5.035   3.211 -0.6098 -0.6643  0.5884
   76POPC  H17S10137   3.116   5.002   3.185 -1.1020  0.3507 -2.1699
   76POPC  C21810138   3.168   5.183   3.294  0.3027 -0.1699  0.3173
   76POPC  H18R10139   3.247   5.260   3.307 -0.3826  0.3542  1.5263
   76POPC  H18S10140   3.165   5.132   3.393  1.0813  0.1407  0.5153
   76POPC  H18T10141   3.073   5.236   3.275  0.3351 -1.1826 -3.3840
   76POPC   C3310142   2.716   5.300   3.146  0.0192  0.0798  0.1635
   76POPC   H3X10143   2.643   5.225   3.109  0.4243  0.3927 -1.3576
   76POPC   H3Y10144   2.686   5.398   3.104  0.0906  0.3221  0.6752
   76POPC   C3410145   2.724   5.298   3.294 -0.9247  0.8719  0.0285
   76POPC   H4X10146   2.762   5.196   3.316  0.1645  0.9517 -1.3270
   76POPC   H4Y10147   2.622   5.297   3.337 -1.9447 -2.0350 -2.1339
   76POPC   C3510148   2.814   5.407   3.358  0.1045  0.0053 -0.3878
   76POPC   H5X10149   2.898   5.443   3.294  0.2762  0.2409 -0.0284
   76POPC   H5Y10150   2.862   5.358   3.445  3.2211  0.0773 -1.9302
   76POPC   C3610151   2.737   5.521   3.407  0.0751  0.2819  0.0938
   76POPC   H6X10152   2.694   5.497   3.506 -0.0913 -0.6151 -0.1829
   76POPC   H6Y10153   2.651   5.537   3.338 -0.7716 -0.4985  0.9369
   76POPC   C3710154   2.810   5.657   3.425  0.5647 -0.0215 -0.2210
   76POPC   H7X10155   2.739   5.742   3.431 -1.5256 -1.6889 -0.4103
   76POPC   H7Y10156   2.873   5.676   3.335  0.3346  2.1459  0.0223
   76POPC   C3810157   2.895   5.662   3.556  1.0859 -0.0606 -1.0279
   76POPC   H8X10158   2.989   5.604   3.548  1.2156 -0.0024 -0.0558
   76POPC   H8Y10159   2.842   5.615   3.642  0.8176  2.6807  0.4533
   76POPC   C3910160   2.925   5.804   3.615  1.0749 -0.2393  0.5499
   76POPC   H9X10161   2.828   5.852   3.639 -0.1357 -0.8172 -2.6112
   76POPC   H9Y10162   2.976   5.867   3.538 -0.7298  1.7227  0.8476
   76POPC  C31010163   3.002   5.796   3.747 -0.7893  0.1984 -0.2737
   76POPC  H10X10164   3.084   5.721   3.739 -0.9255  0.1418 -1.2012
   76POPC  H10Y10165   2.941   5.767   3.835  0.5617  3.2516  1.8715
   76POPC  C31110166   3.059   5.931   3.798  0.7948 -0.1787  0.3758
   76POPC  H11X10167   2.973   5.996   3.825 -3.1398 -3.2838 -3.3023
   76POPC  H11Y10168   3.115   5.981   3.716  2.1377  3.3013  3.1160
   76POPC  C31210169   3.149   5.923   3.914 -1.2763  0.3939 -0.5847
   76POPC  H12X10170   3.240   5.865   3.888  1.3274  3.1354  1.7053
   76POPC  H12Y10171   3.093   5.866   3.993 -0.7812  1.8469  0.8740
   76POPC  C31310172   3.194   6.053   3.974  0.3202 -0.4103 -0.1832
   76POPC  H13X10173   3.103   6.114   3.995 -0.0558 -1.0811  0.1715
   76POPC  H13Y10174   3.250   6.102   3.892 -0.6275 -2.1870 -1.9735
   76POPC  C31410175   3.278   6.037   4.095 -0.9162 -0.6944 -0.1313
   76POPC  H14X10176   3.380   6.002   4.069 -0.4804  1.1760 -1.0925
   76POPC  H14Y10177   3.239   5.959   4.164 -1.5742 -0.0863  0.2061
   76POPC  C31510178   3.288   6.179   4.157 -0.5391  0.3516 -1.6500
   76POPC  H15X10179   3.188   6.216   4.188 -0.5377 -0.3845 -0.7216
   76POPC  H15Y10180   3.318   6.252   4.078  1.1700  0.1893 -1.1871
   76POPC  C31610181   3.395   6.190   4.263 -0.1555  0.2228 -0.5131
   76POPC  H16X10182   3.395   6.289   4.314 -0.2925  0.3377 -0.7335
   76POPC  H16Y10183   3.498   6.198   4.222  0.1019 -1.2251 -0.2230
   76POPC  H16Z10184   3.390   6.121   4.350 -0.5934 -0.9375 -1.4344
   77POPC     N10185   5.160   3.724   2.534 -0.0005 -0.2837 -0.4469
   77POPC   C1210186   5.170   3.847   2.445 -0.1842 -0.0388  0.3541
   77POPC  H12A10187   5.266   3.889   2.470  0.0645 -0.8974  0.8741
   77POPC  H12B10188   5.109   3.929   2.480 -1.0329 -0.5988  0.2381
   77POPC   C1310189   5.179   3.772   2.677 -0.5096  0.4456  0.2143
   77POPC  H13A10190   5.160   3.690   2.744 -0.5290 -0.3079 -0.6880
   77POPC  H13B10191   5.281   3.805   2.690  0.1490  0.4318 -3.5815
   77POPC  H13C10192   5.116   3.853   2.708 -1.3294 -0.8575  2.1519
   77POPC   C1410193   5.021   3.671   2.521 -0.1389 -0.2231  0.4891
   77POPC  H14A10194   4.946   3.746   2.541  0.2533  0.5630 -0.8300
   77POPC  H14B10195   5.006   3.644   2.417 -0.4853  0.0137  0.4733
   77POPC  H14C10196   5.008   3.580   2.577 -0.7041 -0.4635 -0.0183
   77POPC   C1510197   5.252   3.620   2.499  0.6942 -0.2438  0.3433
   77POPC  H15A10198   5.242   3.526   2.552  0.7472  0.7938  2.2883
   77POPC  H15B10199   5.354   3.656   2.499  0.7013 -0.2650  0.3240
   77POPC  H15C10200   5.226   3.587   2.400  3.9282  0.6992 -0.9388
   77POPC   C1110201   5.155   3.818   2.291  0.5069 -0.0482 -0.3347
   77POPC  H11A10202   5.211   3.725   2.268  0.0943 -0.1224 -1.0803
   77POPC  H11B10203   5.204   3.904   2.242  0.6766  0.7184  1.1201
   77POPC     P10204   4.930   3.933   2.238 -0.2892  0.3499 -0.2088
   77POPC   O1310205   4.794   3.883   2.217  0.5050  0.5512 -0.2189
   77POPC   O1410206   4.991   4.020   2.131  0.5189  0.4064  0.6985
   77POPC   O1210207   5.020   3.805   2.251 -0.1579 -0.3426 -0.1563
   77POPC   O1110208   4.944   4.007   2.376  0.2661 -0.3157  0.4207
   77POPC    C110209   4.870   4.123   2.403 -0.2111  0.3850  0.1037
   77POPC    HA10210   4.771   4.126   2.351 -0.5167 -0.2200  0.6397
   77POPC    HB10211   4.934   4.213   2.393 -0.4668  0.6227  0.5576
   77POPC    C210212   4.836   4.121   2.551 -0.1581 -0.0747 -0.5739
   77POPC    HS10213   4.771   4.207   2.575  0.1368 -0.5566  2.2935
   77POPC   O2110214   4.962   4.128   2.623 -0.3378 -0.1743  0.4302
   77POPC   C2110215   5.008   4.249   2.650 -0.1939  0.2135 -0.1842
   77POPC   O2210216   4.965   4.354   2.610  0.6643  0.0579  0.5414
   77POPC   C2210217   5.132   4.233   2.746 -0.5473  0.0381  0.2249
   77POPC   H2R10218   5.226   4.282   2.715  0.9765 -3.1022 -0.5496
   77POPC   H2S10219   5.159   4.125   2.742 -0.4617 -0.0220  1.9365
   77POPC    C310220   4.765   3.987   2.596 -0.2646  0.5213  0.1028
   77POPC    HX10221   4.820   3.896   2.566  0.1004  0.1165  1.8819
   77POPC    HY10222   4.667   3.981   2.544 -0.3999 -4.7051  0.4360
   77POPC   O3110223   4.732   3.987   2.743  0.6882 -0.9495 -0.3709
   77POPC   C3110224   4.829   3.945   2.820 -0.8326 -0.2991 -0.5408
   77POPC   O3210225   4.939   3.900   2.789  0.0523 -0.2347  0.1525
   77POPC   C3210226   4.784   3.964   2.970  0.2551  0.2255 -0.4118
   77POPC   H2X10227   4.688   3.909   2.977  1.2566 -1.4217  1.4770
   77POPC   H2Y10228   4.777   4.074   2.985  0.9058  0.5202 -2.0043
   77POPC   C2310229   5.093   4.251   2.896 -0.0980  1.3906  0.0206
   77POPC   H3R10230   5.010   4.181   2.916 -1.1079  2.0619 -1.6447
   77POPC   H3S10231   5.049   4.352   2.910 -4.5530 -0.4890  1.2126
   77POPC   C2410232   5.206   4.214   2.989 -0.5298  0.5351  0.1168
   77POPC   H4R10233   5.299   4.272   2.968  0.6581 -0.9677  0.9521
   77POPC   H4S10234   5.234   4.109   2.966  0.0149  0.4262  1.1649
   77POPC   C2510235   5.165   4.244   3.131 -0.7118  0.3518  0.1816
   77POPC   H5R10236   5.241   4.190   3.191 -0.4487 -1.2181 -1.4614
   77POPC   H5S10237   5.063   4.202   3.149 -1.3004  2.3554  1.9044
   77POPC   C2610238   5.159   4.395   3.168 -0.3128  0.7057  0.2694
   77POPC   H6R10239   5.091   4.449   3.098 -0.2075 -0.1586 -0.5298
   77POPC   H6S10240   5.257   4.444   3.148 -1.0924  1.0192 -3.5021
   77POPC   C2710241   5.122   4.418   3.313 -0.5018  0.0083  0.4502
   77POPC   H7R10242   5.148   4.319   3.357  0.0363  0.2375  0.6550
   77POPC   H7S10243   5.011   4.429   3.318 -0.6429 -0.4075 -1.0227
   77POPC   C2810244   5.193   4.532   3.387 -0.7941 -1.1987 -0.3924
   77POPC   H8R10245   5.298   4.498   3.396 -0.0290  0.5906 -1.9541
   77POPC   H8S10246   5.157   4.554   3.490  1.4182 -0.5129  0.2914
   77POPC   C2910247   5.189   4.657   3.307 -0.3697  0.0375 -0.0222
   77POPC   H9110248   5.088   4.701   3.302 -0.3293  0.0905 -0.4053
   77POPC  C21010249   5.283   4.725   3.249  0.3882  0.6413  0.1126
   77POPC  H10110250   5.240   4.818   3.208 -2.5141 -0.8404 -0.4865
   77POPC  C21110251   5.426   4.701   3.242  0.0083 -0.8426 -0.0584
   77POPC  H11R10252   5.454   4.594   3.233  1.1952 -0.6697  1.2315
   77POPC  H11S10253   5.472   4.737   3.336  1.0953 -1.8525 -0.1915
   77POPC  C21210254   5.475   4.770   3.117  0.5996 -0.3808 -0.0844
   77POPC  H12R10255   5.415   4.751   3.025 -2.4139  3.4318  0.7900
   77POPC  H12S10256   5.581   4.740   3.102  1.5025  2.8907 -1.2420
   77POPC  C21310257   5.491   4.922   3.132  0.1427 -0.1175 -0.4984
   77POPC  H13R10258   5.392   4.958   3.168 -0.5997 -1.6988 -0.8739
   77POPC  H13S10259   5.535   4.964   3.039  0.6319  0.4776 -0.0145
   77POPC  C21410260   5.588   4.978   3.239 -0.3961 -0.3875 -0.6628
   77POPC  H14R10261   5.689   4.958   3.200 -0.7692 -0.8012 -1.4342
   77POPC  H14S10262   5.581   4.930   3.339 -2.0749  3.3557  1.2494
   77POPC  C21510263   5.566   5.125   3.272 -0.2009  0.1301 -0.1565
   77POPC  H15R10264   5.464   5.141   3.313 -1.2865 -1.8857 -1.8295
   77POPC  H15S10265   5.573   5.182   3.176  0.5125  1.4898  0.6670
   77POPC  C21610266   5.671   5.182   3.372  0.2348  0.1315  0.0773
   77POPC  H16R10267   5.768   5.173   3.318  0.1020 -0.4801 -0.0696
   77POPC  H16S10268   5.688   5.125   3.466 -1.8698 -0.7880 -0.0544
   77POPC  C21710269   5.639   5.319   3.420 -0.0218  0.0526 -0.3007
   77POPC  H17R10270   5.700   5.348   3.508 -1.4644  0.7582  0.4922
   77POPC  H17S10271   5.535   5.316   3.458 -0.1808 -1.4644 -0.7984
   77POPC  C21810272   5.658   5.426   3.315  0.5074  1.0063 -0.5795
   77POPC  H18R10273   5.760   5.414   3.273  0.8365  1.0132  0.2178
   77POPC  H18S10274   5.630   5.525   3.357 -3.4886  0.5128 -1.5917
   77POPC  H18T10275   5.588   5.411   3.230 -0.3315  1.5185  0.0069
   77POPC   C3310276   4.885   3.911   3.074  0.5520  0.3780 -0.1596
   77POPC   H3X10277   4.989   3.930   3.041  0.5768 -2.0008 -1.7021
   77POPC   H3Y10278   4.877   3.800   3.080 -1.3855  0.5459  1.4210
   77POPC   C3410279   4.865   3.981   3.212  0.4216  0.4783  0.3616
   77POPC   H4X10280   4.776   3.934   3.261 -0.4387  1.2689 -0.3908
   77POPC   H4Y10281   4.854   4.090   3.197 -0.5069  0.4159  0.4868
   77POPC   C3510282   4.989   3.969   3.302  0.3058 -0.0758  0.5022
   77POPC   H5X10283   5.076   3.998   3.240 -0.1381  1.8502  0.7353
   77POPC   H5Y10284   5.000   3.861   3.325 -0.1766 -0.5177 -1.1467
   77POPC   C3610285   4.985   4.063   3.424  1.0237 -0.3228  0.2453
   77POPC   H6X10286   4.885   4.052   3.470  1.2044 -0.6751  0.5638
   77POPC   H6Y10287   5.011   4.162   3.382 -0.8729 -0.3837 -1.1805
   77POPC   C3710288   5.095   4.041   3.533  0.4839  0.1963  0.4664
   77POPC   H7X10289   5.089   4.120   3.611 -0.2443  0.5752  0.0434
   77POPC   H7Y10290   5.186   4.050   3.470 -1.9627  2.2052 -3.1937
   77POPC   C3810291   5.074   3.899   3.593 -0.2383 -0.4979  0.4609
   77POPC   H8X10292   5.087   3.826   3.511  2.2078 -1.0550  1.2486
   77POPC   H8Y10293   4.971   3.888   3.634 -0.1517 -0.6624  0.6394
   77POPC   C3910294   5.165   3.871   3.715 -0.2575  0.6217  0.0249
   77POPC   H9X10295   5.163   3.949   3.794 -0.3892 -1.8926  2.6757
   77POPC   H9Y10296   5.267   3.869   3.671 -0.9157 -0.0154 -1.5361
   77POPC  C31010297   5.135   3.727   3.776 -0.4295 -0.2435  1.3052
   77POPC  H10X10298   5.121   3.650   3.697  1.4655  2.6295 -2.1227
   77POPC  H10Y10299   5.040   3.744   3.830 -1.0164  0.7181  0.0296
   77POPC  C31110300   5.252   3.677   3.857  0.3708 -0.2558 -0.4869
   77POPC  H11X10301   5.341   3.651   3.796 -0.7867 -0.8935 -1.9952
   77POPC  H11Y10302   5.219   3.583   3.905 -0.2257  0.2424  0.0964
   77POPC  C31210303   5.290   3.779   3.972  0.1157 -0.0438 -0.1870
   77POPC  H12X10304   5.204   3.797   4.041  1.3434 -0.4187  1.4958
   77POPC  H12Y10305   5.319   3.874   3.922  0.6437 -0.3459 -0.4634
   77POPC  C31310306   5.401   3.732   4.064  0.1407  0.2078 -0.1494
   77POPC  H13X10307   5.485   3.702   3.999  0.3618 -1.3462  0.8243
   77POPC  H13Y10308   5.371   3.639   4.117 -0.9610  0.5366 -0.1517
   77POPC  C31410309   5.439   3.842   4.162  1.0159  0.2039  0.6308
   77POPC  H14X10310   5.458   3.936   4.105 -0.1932  0.2967  0.3684
   77POPC  H14Y10311   5.536   3.812   4.207  0.6445 -1.9700  0.0507
   77POPC  C31510312   5.339   3.869   4.272  0.0601  0.1123 -0.6826
   77POPC  H15X10313   5.231   3.886   4.253 -0.3541  1.3914  2.2227
   77POPC  H15Y10314   5.360   3.959   4.333 -2.3404 -0.2950  0.8580
   77POPC  C31610315   5.340   3.750   4.377 -0.5946 -0.9188  0.0367
   77POPC  H16X10316   5.445   3.733   4.408 -0.6770  0.8471  1.4568
   77POPC  H16Y10317   5.296   3.662   4.325 -1.5013  1.2716 -3.2740
   77POPC  H16Z10318   5.272   3.779   4.460 -0.1549  2.3740 -0.6316
   78POPC     N10319   1.483   3.310   2.132 -0.5290 -0.0521  0.7770
   78POPC   C1210320   1.481   3.250   2.271 -0.1922  0.2681 -0.0360
   78POPC  H12A10321   1.566   3.288   2.324 -1.9716  2.7626  1.2390
   78POPC  H12B10322   1.504   3.145   2.266  1.6563  0.6490 -0.3163
   78POPC   C1310323   1.611   3.276   2.054  0.0720  0.0828  0.4005
   78POPC  H13A10324   1.608   3.325   1.958 -0.7597  1.1500  0.9512
   78POPC  H13B10325   1.701   3.307   2.105  2.1542 -0.4098 -2.7058
   78POPC  H13C10326   1.615   3.169   2.037  0.0892  0.1195  0.1701
   78POPC   C1410327   1.364   3.270   2.049 -0.2472 -0.2280 -0.2961
   78POPC  H14A10328   1.371   3.318   1.952 -1.3742  0.5406 -0.0115
   78POPC  H14B10329   1.352   3.165   2.024 -0.5177 -0.1980 -0.2957
   78POPC  H14C10330   1.275   3.299   2.102 -1.1787 -1.7896 -0.9392
   78POPC   C1510331   1.477   3.465   2.142 -0.1829  0.4557  0.3150
   78POPC  H15A10332   1.386   3.503   2.187  1.3394  1.3429  2.8686
   78POPC  H15B10333   1.486   3.505   2.042 -2.0426 -3.2157 -1.5633
   78POPC  H15C10334   1.555   3.514   2.197  0.4467 -0.3313  0.1423
   78POPC   C1110335   1.359   3.276   2.356  0.3717  0.2825 -0.5354
   78POPC  H11A10336   1.328   3.383   2.362 -0.3319  0.0615 -0.1306
   78POPC  H11B10337   1.378   3.254   2.463 -0.7533 -1.1377 -0.5947
   78POPC     P10338   1.105   3.241   2.304 -0.2599  0.0606 -0.1098
   78POPC   O1310339   1.015   3.129   2.260 -0.0467 -0.7492  0.8834
   78POPC   O1410340   1.106   3.362   2.215  0.2822  0.0580 -0.0468
   78POPC   O1210341   1.252   3.189   2.318  0.2742 -0.0666 -0.2249
   78POPC   O1110342   1.064   3.294   2.437 -0.4695 -0.3316  0.5102
   78POPC    C110343   0.946   3.356   2.483  0.6990 -0.3558  0.6941
   78POPC    HA10344   0.860   3.313   2.427  0.1512  2.6389 -1.0116
   78POPC    HB10345   0.941   3.465   2.459  1.2934 -0.8924 -2.3091
   78POPC    C210346   0.904   3.322   2.627 -0.1149 -0.4534 -0.3131
   78POPC    HS10347   0.797   3.346   2.641 -0.3591 -1.7919  0.3224
   78POPC   O2110348   0.991   3.390   2.725 -0.0952 -0.1226  0.7173
   78POPC   C2110349   0.955   3.518   2.736  0.0678 -0.2221  0.2136
   78POPC   O2210350   0.859   3.565   2.676  0.2450  0.2804  0.5133
   78POPC   C2210351   1.059   3.592   2.813 -0.6541 -0.1121  0.3121
   78POPC   H2R10352   1.107   3.670   2.750  1.6764 -0.6356  1.3479
   78POPC   H2S10353   1.139   3.520   2.841  1.1914  0.9026 -1.9962
   78POPC    C310354   0.913   3.166   2.647 -0.3506  0.1434  0.4439
   78POPC    HX10355   1.003   3.129   2.594 -1.9390 -1.3481 -1.3296
   78POPC    HY10356   0.833   3.131   2.578 -0.5182  1.2725  0.0515
   78POPC   O3110357   0.893   3.114   2.790  0.6010  0.1386  0.0525
   78POPC   C3110358   0.987   3.022   2.823  0.2828 -0.1782 -0.4246
   78POPC   O3210359   1.090   2.997   2.762 -0.2146 -0.3966  0.4685
   78POPC   C3210360   0.947   2.969   2.966 -0.4829  0.0965 -0.1195
   78POPC   H2X10361   0.932   2.860   2.951  1.5418 -0.0451 -1.5047
   78POPC   H2Y10362   0.856   3.021   3.004  0.1161  1.0185  0.0765
   78POPC   C2310363   1.014   3.673   2.935 -1.0947  0.6091  0.2564
   78POPC   H3R10364   0.959   3.766   2.912 -3.5853 -0.6373  0.8293
   78POPC   H3S10365   1.110   3.711   2.977 -0.2644  0.1844 -1.1741
   78POPC   C2410366   0.951   3.577   3.036 -0.6028 -0.2285  1.0117
   78POPC   H4R10367   1.004   3.482   3.013  0.9307  1.0437 -1.0485
   78POPC   H4S10368   0.844   3.554   3.019 -0.2794 -0.1263 -1.4496
   78POPC   C2510369   0.983   3.622   3.182 -0.7818  0.0552 -0.0190
   78POPC   H5R10370   1.093   3.634   3.190 -0.2288 -3.4224 -0.9418
   78POPC   H5S10371   0.959   3.531   3.241 -0.4497  2.7766  4.9050
   78POPC   C2610372   0.899   3.730   3.236 -0.7181  0.1515 -0.3428
   78POPC   H6R10373   0.792   3.704   3.220 -0.8226  0.6710 -0.5033
   78POPC   H6S10374   0.926   3.815   3.170 -1.0246  0.1340 -0.4896
   78POPC   C2710375   0.924   3.773   3.382 -0.0586  0.3665  0.1505
   78POPC   H7R10376   1.030   3.766   3.413  0.2174 -1.5812 -1.0586
   78POPC   H7S10377   0.877   3.695   3.447  1.4221  0.3018  1.1874
   78POPC   C2810378   0.870   3.914   3.418 -0.2219 -0.2844  0.3295
   78POPC   H8R10379   0.764   3.922   3.387 -0.0063 -0.8990 -0.6125
   78POPC   H8S10380   0.915   3.992   3.353  0.6682  1.9345  3.3795
   78POPC   C2910381   0.898   3.948   3.564 -0.8000  0.0345 -0.3790
   78POPC   H9110382   0.990   3.895   3.595 -0.7409  0.1810 -0.3010
   78POPC  C21010383   0.826   4.029   3.647 -0.0865 -0.4464 -0.0118
   78POPC  H10110384   0.851   4.037   3.753 -3.6073  1.1716  0.8561
   78POPC  C21110385   0.696   4.097   3.620 -0.0152  0.3182  0.1681
   78POPC  H11R10386   0.647   4.071   3.524 -0.8613 -0.2529  0.7453
   78POPC  H11S10387   0.719   4.205   3.618  0.0533  0.3476  1.8608
   78POPC  C21210388   0.590   4.078   3.735 -0.6818 -0.3802  0.0173
   78POPC  H12R10389   0.581   3.974   3.772  1.1714  0.5169  3.3843
   78POPC  H12S10390   0.490   4.112   3.701  1.5599  3.6602 -3.4632
   78POPC  C21310391   0.624   4.165   3.858 -0.0099  0.3403  0.6596
   78POPC  H13R10392   0.621   4.273   3.836 -0.3535  0.9680  3.3677
   78POPC  H13S10393   0.728   4.137   3.883 -0.5006 -1.0740  1.2678
   78POPC  C21410394   0.533   4.123   3.977 -0.0728 -0.4318  0.2592
   78POPC  H14R10395   0.535   4.012   3.968  0.3896 -0.3760 -0.4053
   78POPC  H14S10396   0.433   4.160   3.948  0.7689  1.2267 -0.7030
   78POPC  C21510397   0.581   4.180   4.113  0.0800  0.3360 -0.0676
   78POPC  H15R10398   0.587   4.291   4.106  0.2083  0.3133 -0.3249
   78POPC  H15S10399   0.681   4.140   4.138  0.1320  0.2702 -0.3751
   78POPC  C21610400   0.476   4.148   4.214  0.2218 -0.3183  0.3409
   78POPC  H16R10401   0.379   4.193   4.182  1.0606  1.6323  0.4021
   78POPC  H16S10402   0.509   4.188   4.312 -1.9484 -0.1035  1.0414
   78POPC  C21710403   0.459   3.996   4.243 -0.0045  0.6697  0.2983
   78POPC  H17R10404   0.555   3.952   4.279 -0.4997 -0.1127  0.6929
   78POPC  H17S10405   0.437   3.936   4.152 -3.0702  0.2950  1.1715
   78POPC  C21810406   0.356   3.960   4.347  0.2745 -0.4198  0.3860
   78POPC  H18R10407   0.367   3.855   4.380 -1.5732 -0.7211  0.1233
   78POPC  H18S10408   0.255   3.979   4.305  0.2131  0.9567  1.1173
   78POPC  H18T10409   0.357   4.036   4.428 -0.0732 -1.3307  1.2642
   78POPC   C3310410   1.071   2.982   3.062  0.0790 -0.2750 -0.1374
   78POPC   H3X10411   1.153   2.922   3.019  1.3095  0.3121  1.3164
   78POPC   H3Y10412   1.049   2.937   3.161  0.5387  1.0679  0.5996
   78POPC   C3410413   1.093   3.127   3.084  0.6175  0.2472  0.3082
   78POPC   H4X10414   1.000   3.159   3.135  0.5459 -1.2502  1.1905
   78POPC   H4Y10415   1.108   3.180   2.988 -3.9652 -0.7114 -1.1641
   78POPC   C3510416   1.204   3.159   3.191  0.0780 -0.1023 -0.9250
   78POPC   H5X10417   1.301   3.124   3.152  0.0571 -0.7615 -0.3913
   78POPC   H5Y10418   1.178   3.098   3.279  1.1369 -0.3477 -0.7834
   78POPC   C3610419   1.210   3.307   3.222 -0.2522 -0.7324 -0.1471
   78POPC   H6X10420   1.109   3.340   3.252  0.0257 -0.8380  0.9612
   78POPC   H6Y10421   1.239   3.368   3.135 -1.1911  0.5953  0.4407
   78POPC   C3710422   1.303   3.337   3.341 -0.6079  0.4609  0.7325
   78POPC   H7X10423   1.395   3.279   3.320 -1.1504 -0.6904  1.4682
   78POPC   H7Y10424   1.267   3.287   3.433  0.0792  0.1044  0.8114
   78POPC   C3810425   1.333   3.483   3.366  0.6409 -0.2386 -0.0764
   78POPC   H8X10426   1.249   3.535   3.416  0.4172  2.3954 -2.8375
   78POPC   H8Y10427   1.353   3.529   3.266 -0.4861  0.7625  0.1434
   78POPC   C3910428   1.458   3.504   3.447  0.1528  0.2644  0.1897
   78POPC   H9X10429   1.459   3.612   3.472 -0.8032 -0.0944  2.0294
   78POPC   H9Y10430   1.545   3.497   3.379  0.3916  0.3687  0.4835
   78POPC  C31010431   1.475   3.414   3.574  0.3225 -0.3505  0.3204
   78POPC  H10X10432   1.487   3.310   3.538  1.2499  0.4317 -1.7479
   78POPC  H10Y10433   1.376   3.420   3.625  0.2470 -0.0162  0.1366
   78POPC  C31110434   1.586   3.463   3.673  0.0486 -0.1943  0.5400
   78POPC  H11X10435   1.678   3.483   3.613 -0.4509  0.8973  0.0996
   78POPC  H11Y10436   1.605   3.384   3.749  0.6173 -0.4434  0.1448
   78POPC  C31210437   1.559   3.589   3.752  0.7399 -0.2417  0.4109
   78POPC  H12X10438   1.474   3.578   3.823 -0.5738  0.7235 -0.9448
   78POPC  H12Y10439   1.529   3.679   3.695  1.3554  0.8286  1.7170
   78POPC  C31310440   1.684   3.624   3.843  0.8670 -0.3302  0.5135
   78POPC  H13X10441   1.772   3.630   3.776  2.3488 -0.3633  2.3893
   78POPC  H13Y10442   1.703   3.532   3.903  3.6058  1.0176  1.8844
   78POPC  C31410443   1.657   3.745   3.928  0.4345  0.5944 -0.5691
   78POPC  H14X10444   1.550   3.740   3.957 -0.2400  2.4120 -2.4407
   78POPC  H14Y10445   1.666   3.837   3.867  0.8134  0.8742 -0.0947
   78POPC  C31510446   1.757   3.752   4.040 -0.2129 -0.2169  0.1373
   78POPC  H15X10447   1.769   3.647   4.073  0.2145 -0.5512 -1.0169
   78POPC  H15Y10448   1.852   3.793   4.002 -0.6337  0.1365 -0.5577
   78POPC  C31610449   1.716   3.836   4.158 -0.6690 -0.4573 -0.3418
   78POPC  H16X10450   1.721   3.941   4.123  1.1307 -0.7051 -0.9801
   78POPC  H16Y10451   1.780   3.815   4.247 -0.1606 -0.9425 -0.8080
   78POPC  H16Z10452   1.617   3.801   4.194 -0.0517 -1.9483 -0.0068
   79POPC     N10453   4.778   3.579   1.966 -0.1250 -0.0668 -0.2481
   79POPC   C1210454   4.879   3.539   2.079  0.0328 -0.2053 -0.0619
   79POPC  H12A10455   4.922   3.627   2.125  2.4508 -2.0214  1.4371
   79POPC  H12B10456   4.967   3.495   2.034  0.4135  1.1780 -0.7136
   79POPC   C1310457   4.861   3.628   1.847 -0.6697  0.5398 -0.5295
   79POPC  H13A10458   4.813   3.667   1.759  2.5096  4.5593 -0.7802
   79POPC  H13B10459   4.907   3.719   1.883 -0.3699 -0.1514  0.9133
   79POPC  H13C10460   4.942   3.561   1.823 -0.0205  0.6185  1.2684
   79POPC   C1410461   4.689   3.468   1.921  0.0739  0.4556 -0.1574
   79POPC  H14A10462   4.617   3.492   1.845  0.2562  1.2994 -0.0853
   79POPC  H14B10463   4.754   3.387   1.894 -1.7262 -1.0696 -0.0753
   79POPC  H14C10464   4.640   3.437   2.012 -0.5662  0.4846 -0.4875
   79POPC   C1510465   4.679   3.683   2.005 -0.3745 -0.7045 -0.1620
   79POPC  H15A10466   4.628   3.725   1.920  1.4624 -0.2145 -1.0835
   79POPC  H15B10467   4.728   3.770   2.045  0.9736 -0.6210 -1.8557
   79POPC  H15C10468   4.611   3.654   2.083  0.0589  0.5645  0.7198
   79POPC   C1110469   4.824   3.445   2.192 -0.2678 -0.2660 -0.4574
   79POPC  H11A10470   4.723   3.483   2.220  0.7902  1.6202  1.0084
   79POPC  H11B10471   4.889   3.455   2.281  0.7609  2.0002 -1.3743
   79POPC     P10472   4.935   3.224   2.094  0.6680  0.4008  0.3469
   79POPC   O1310473   5.046   3.307   2.053  0.0498  0.3583 -0.7890
   79POPC   O1410474   4.892   3.118   2.000  0.0056 -0.0489 -0.0191
   79POPC   O1210475   4.816   3.310   2.145  0.2481  0.0075  0.0791
   79POPC   O1110476   4.983   3.158   2.229  0.2952 -0.1873 -0.1870
   79POPC    C110477   4.886   3.078   2.304  0.4662  0.3546  0.4989
   79POPC    HA10478   4.891   2.982   2.249  0.2167  0.8316 -0.3773
   79POPC    HB10479   4.785   3.122   2.313 -0.6474 -1.5774 -1.5311
   79POPC    C210480   4.954   3.047   2.441 -0.3341  0.0116  0.1502
   79POPC    HS10481   5.035   2.971   2.443 -1.3435 -1.1488  3.0758
   79POPC   O2110482   4.850   3.006   2.534  0.1803  0.3763  0.5120
   79POPC   C2110483   4.815   2.878   2.519 -0.4165  0.1683 -0.4025
   79POPC   O2210484   4.863   2.800   2.441  0.3917  0.1509 -0.8352
   79POPC   C2210485   4.710   2.833   2.624 -0.2144  0.6401 -0.7736
   79POPC   H2R10486   4.738   2.726   2.636 -1.8818  0.1224 -1.2472
   79POPC   H2S10487   4.611   2.839   2.575  0.8535  1.3653 -2.9674
   79POPC    C310488   5.007   3.179   2.494  0.2950  0.5828 -0.0077
   79POPC    HX10489   4.926   3.255   2.500  0.5537  0.7605  1.5747
   79POPC    HY10490   5.089   3.228   2.437 -0.6234  2.4064  0.1784
   79POPC   O3110491   5.045   3.162   2.630  0.1835  0.2846 -0.6014
   79POPC   C3110492   5.077   3.276   2.701 -0.0272  0.3572  0.0097
   79POPC   O3210493   5.053   3.388   2.663 -0.3975 -0.1835  0.2648
   79POPC   C3210494   5.129   3.236   2.841 -0.5701  0.6198  0.0634
   79POPC   H2X10495   5.207   3.158   2.831 -0.6698  0.6343 -0.8672
   79POPC   H2Y10496   5.049   3.180   2.894  0.9564 -1.4821  0.2501
   79POPC   C2310497   4.717   2.914   2.760 -0.2016 -0.4814  0.2615
   79POPC   H3R10498   4.695   3.023   2.748  0.3095 -0.4670 -0.6601
   79POPC   H3S10499   4.822   2.904   2.796 -0.1459 -1.5297 -0.1692
   79POPC   C2410500   4.634   2.847   2.871 -0.5062  0.0226  0.1684
   79POPC   H4R10501   4.660   2.740   2.858  0.9024  0.3756 -0.0494
   79POPC   H4S10502   4.528   2.867   2.845  0.0005 -0.2201 -2.3189
   79POPC   C2510503   4.659   2.906   3.010 -0.2273 -0.5031 -0.0853
   79POPC   H5R10504   4.767   2.929   3.024 -0.6527  0.3285  2.2677
   79POPC   H5S10505   4.635   2.825   3.082  1.1263 -1.5823 -0.7993
   79POPC   C2610506   4.591   3.047   3.032 -0.2770  0.7107  0.5967
   79POPC   H6R10507   4.480   3.039   3.020 -0.3073  2.5284 -0.6226
   79POPC   H6S10508   4.620   3.116   2.951  0.6351  0.1227  0.4082
   79POPC   C2710509   4.604   3.093   3.186 -0.1559 -0.0541  0.4713
   79POPC   H7R10510   4.563   3.195   3.204  0.9400  1.2453 -3.4184
   79POPC   H7S10511   4.712   3.093   3.211 -0.5771 -0.3688  2.4400
   79POPC   C2810512   4.550   2.997   3.293 -0.1220 -1.0972  0.1004
   79POPC   H8R10513   4.593   3.013   3.394  0.7883 -3.7601  0.1921
   79POPC   H8S10514   4.587   2.897   3.263 -1.2680 -1.3596 -0.5179
   79POPC   C2910515   4.392   2.989   3.293 -0.3784 -0.2625 -0.0215
   79POPC   H9110516   4.353   2.933   3.207  0.7421 -1.3731  0.1568
   79POPC  C21010517   4.315   3.057   3.381 -0.6704  0.2270  0.3579
   79POPC  H10110518   4.208   3.032   3.379 -1.4511  3.1912 -0.5637
   79POPC  C21110519   4.358   3.154   3.487 -0.6443  0.5428 -0.0221
   79POPC  H11R10520   4.279   3.231   3.498  0.1061  1.2997  0.1144
   79POPC  H11S10521   4.451   3.202   3.451 -0.2272 -0.1741  0.0672
   79POPC  C21210522   4.392   3.087   3.626 -0.5565  0.2399  0.2404
   79POPC  H12R10523   4.481   3.020   3.626 -1.3510 -0.8650  1.7849
   79POPC  H12S10524   4.308   3.020   3.652 -0.0983 -0.9258 -1.1123
   79POPC  C21310525   4.417   3.192   3.739  0.4535 -0.5436  0.2208
   79POPC  H13R10526   4.316   3.237   3.751 -0.6674 -3.4552  3.5676
   79POPC  H13S10527   4.475   3.279   3.701  0.8407 -1.1515 -0.6027
   79POPC  C21410528   4.456   3.160   3.885  0.1448 -0.5834  0.4615
   79POPC  H14R10529   4.381   3.088   3.924  0.2250 -1.2625 -0.5922
   79POPC  H14S10530   4.452   3.255   3.943  0.6809  0.5581 -1.2884
   79POPC  C21510531   4.597   3.094   3.906  0.0316  0.4360 -0.3951
   79POPC  H15R10532   4.667   3.167   3.860 -0.2144 -0.0227 -1.5298
   79POPC  H15S10533   4.599   2.994   3.858  1.8663  0.7059 -0.9878
   79POPC  C21610534   4.614   3.087   4.061  0.3242  0.2086 -0.3328
   79POPC  H16R10535   4.531   3.037   4.116 -0.5580  0.1687 -1.6516
   79POPC  H16S10536   4.611   3.188   4.106  0.0542 -0.5958  1.5754
   79POPC  C21710537   4.733   3.001   4.097  0.7956 -0.1179  0.3798
   79POPC  H17R10538   4.806   2.995   4.013  1.2455 -0.1139  0.7692
   79POPC  H17S10539   4.693   2.899   4.114 -1.3595  0.6372  0.0837
   79POPC  C21810540   4.799   3.037   4.232 -0.4429 -0.2539  0.3245
   79POPC  H18R10541   4.878   2.964   4.260  0.3198  0.4425  0.0717
   79POPC  H18S10542   4.718   3.049   4.307 -1.4313  1.2791 -0.9205
   79POPC  H18T10543   4.846   3.138   4.234 -0.7245 -0.0685 -1.1805
   79POPC   C3310544   5.171   3.353   2.936 -0.6635  0.1161  0.3701
   79POPC   H3X10545   5.084   3.421   2.930 -1.3091 -0.8113 -1.4375
   79POPC   H3Y10546   5.254   3.413   2.892 -0.2913 -1.3715 -1.0229
   79POPC   C3410547   5.197   3.309   3.081 -0.1965 -0.2251 -0.0864
   79POPC   H4X10548   5.101   3.261   3.110 -0.1445 -1.1620 -1.3595
   79POPC   H4Y10549   5.213   3.390   3.154 -0.1127 -2.5436  2.6428
   79POPC   C3510550   5.318   3.215   3.091  0.0475 -0.2850  0.5109
   79POPC   H5X10551   5.396   3.294   3.088 -0.4821  0.2181 -0.2804
   79POPC   H5Y10552   5.311   3.145   3.006 -1.4247 -0.1403  0.4801
   79POPC   C3610553   5.332   3.123   3.209 -0.3293  0.6251  0.1454
   79POPC   H6X10554   5.274   3.029   3.199  2.4832 -1.5470  2.5245
   79POPC   H6Y10555   5.301   3.170   3.305  0.2124  0.8686  0.2083
   79POPC   C3710556   5.482   3.075   3.225  1.0878 -0.4974  0.4114
   79POPC   H7X10557   5.482   2.993   3.300 -0.3897 -1.0222 -0.1235
   79POPC   H7Y10558   5.538   3.152   3.282 -0.6686  1.4950 -0.4127
   79POPC   C3810559   5.535   3.024   3.090  0.4312 -0.0387  0.2988
   79POPC   H8X10560   5.554   3.114   3.027  0.6841  1.5255  2.4802
   79POPC   H8Y10561   5.455   2.965   3.040 -0.5321  2.0087 -0.6827
   79POPC   C3910562   5.662   2.938   3.089  0.3328  0.3350  0.2148
   79POPC   H9X10563   5.677   2.892   2.989  1.3567 -0.1407  0.5836
   79POPC   H9Y10564   5.638   2.855   3.158 -0.8213  0.6282  0.1923
   79POPC  C31010565   5.781   3.014   3.141  0.3205 -0.4316 -0.8667
   79POPC  H10X10566   5.782   3.055   3.245 -0.3811  1.3844 -1.5408
   79POPC  H10Y10567   5.791   3.100   3.072  1.2586 -1.1438 -1.6540
   79POPC  C31110568   5.907   2.927   3.127  1.3253 -0.2541 -0.3024
   79POPC  H11X10569   5.990   3.001   3.131  0.1229  1.4584 -3.5662
   79POPC  H11Y10570   5.911   2.887   3.024 -0.4836  0.8485 -0.8543
   79POPC  C31210571   5.914   2.812   3.233 -0.7025 -0.7101 -0.1837
   79POPC  H12X10572   5.829   2.744   3.209 -2.3296  1.0706  0.2578
   79POPC  H12Y10573   5.899   2.844   3.339  0.1542  0.6120 -0.4473
   79POPC  C31310574   6.052   2.742   3.225 -0.3039 -0.0915 -0.4735
   79POPC  H13X10575   6.124   2.826   3.223 -0.1988 -0.1272  1.0922
   79POPC  H13Y10576   6.055   2.673   3.138 -0.2765 -0.3796 -0.2450
   79POPC  C31410577   6.088   2.661   3.349 -0.8873 -0.7377  0.2323
   79POPC  H14X10578   6.160   2.580   3.323  3.0480  2.4555  0.0547
   79POPC  H14Y10579   5.990   2.614   3.370 -1.9842 -0.1390 -2.9160
   79POPC  C31510580   6.154   2.737   3.467 -0.9692 -0.0403 -0.1930
   79POPC  H15X10581   6.087   2.823   3.488 -2.3132 -1.0545 -0.1532
   79POPC  H15Y10582   6.250   2.774   3.428 -2.0033  1.4703 -1.4237
   79POPC  C31610583   6.179   2.645   3.588 -0.0035  0.8951 -0.2904
   79POPC  H16X10584   6.080   2.613   3.626 -0.6605  0.6513 -2.1145
   79POPC  H16Y10585   6.242   2.688   3.669 -1.1525 -0.1198  1.1892
   79POPC  H16Z10586   6.234   2.558   3.547 -0.6350 -0.0439  0.8030
   80POPC     N10587   1.223   2.869   2.438 -0.4066  0.2838 -0.0336
   80POPC   C1210588   1.263   2.728   2.479  0.3262  0.1511 -0.2607
   80POPC  H12A10589   1.230   2.703   2.578  1.1102 -1.2904 -0.3382
   80POPC  H12B10590   1.369   2.720   2.499  0.4233  0.0479 -0.7882
   80POPC   C1310591   1.072   2.868   2.419  0.1462 -0.3051  0.6139
   80POPC  H13A10592   1.031   2.941   2.351  2.2785  0.5218  0.1503
   80POPC  H13B10593   1.043   2.780   2.364 -1.3399 -0.9660  2.3457
   80POPC  H13C10594   1.012   2.878   2.509 -2.3739  4.2724 -1.2439
   80POPC   C1410595   1.270   2.961   2.537  0.3873 -0.1094  0.0944
   80POPC  H14A10596   1.275   3.057   2.487 -1.1803  0.2721  0.6114
   80POPC  H14B10597   1.209   2.973   2.626  1.3431 -1.2010  0.9299
   80POPC  H14C10598   1.369   2.939   2.574  0.1278 -0.9534  0.3043
   80POPC   C1510599   1.293   2.900   2.307  0.0147 -0.0561 -1.2278
   80POPC  H15A10600   1.279   2.817   2.240 -0.1930 -0.6896 -0.4218
   80POPC  H15B10601   1.400   2.898   2.321 -0.1660 -0.8897  0.2656
   80POPC  H15C10602   1.252   2.991   2.266 -3.2281  0.3168  2.2267
   80POPC   C1110603   1.238   2.605   2.387  0.4176  0.7975  0.2500
   80POPC  H11A10604   1.129   2.600   2.369  0.2674 -0.1229  1.3073
   80POPC  H11B10605   1.250   2.514   2.449 -4.6014 -0.9379 -0.8491
   80POPC     P10606   1.488   2.564   2.289  0.6917  0.5412 -0.2441
   80POPC   O1310607   1.568   2.677   2.238 -0.1654 -0.4433  0.2788
   80POPC   O1410608   1.522   2.433   2.229 -0.3079 -0.0519 -0.2908
   80POPC   O1210609   1.328   2.594   2.275  0.4884  0.3636 -0.4526
   80POPC   O1110610   1.503   2.559   2.452  0.5522 -0.5151  0.2524
   80POPC    C110611   1.562   2.436   2.504 -0.8540 -0.4913 -0.5160
   80POPC    HA10612   1.596   2.454   2.608 -2.5642 -0.1121  0.0037
   80POPC    HB10613   1.649   2.402   2.444 -0.4195  0.8582 -0.6832
   80POPC    C210614   1.458   2.317   2.521  0.1759  0.3921  0.0361
   80POPC    HS10615   1.416   2.305   2.418 -1.2506  2.4277  0.3283
   80POPC   O2110616   1.352   2.362   2.610  0.3439  0.1494  0.5244
   80POPC   C2110617   1.247   2.285   2.624 -0.1464  0.1246 -0.6171
   80POPC   O2210618   1.232   2.182   2.559 -0.2945 -0.1288  0.9430
   80POPC   C2210619   1.149   2.346   2.724 -0.8233 -0.3300 -0.1481
   80POPC   H2R10620   1.051   2.313   2.686 -0.4063 -1.1350 -0.5310
   80POPC   H2S10621   1.162   2.456   2.713 -2.2932 -0.2138 -0.8911
   80POPC    C310622   1.525   2.183   2.584 -0.3596 -0.9783 -0.8587
   80POPC    HX10623   1.596   2.140   2.511  0.2121 -1.9115  0.2089
   80POPC    HY10624   1.444   2.108   2.595 -1.7828  0.7617  1.4824
   80POPC   O3110625   1.592   2.215   2.712  0.1325  0.0024  0.6908
   80POPC   C3110626   1.551   2.155   2.825 -0.9217 -0.1023  1.3130
   80POPC   O3210627   1.467   2.072   2.834 -0.4458 -0.2757 -0.0015
   80POPC   C3210628   1.630   2.221   2.938  0.8880 -0.5691  0.1699
   80POPC   H2X10629   1.668   2.317   2.895 -1.6280  0.7142  0.6561
   80POPC   H2Y10630   1.706   2.144   2.966  0.9779 -1.0679 -1.3382
   80POPC   C2310631   1.169   2.297   2.875  0.2820 -0.4749  0.4151
   80POPC   H3R10632   1.273   2.309   2.913  0.7012 -2.0246 -0.1538
   80POPC   H3S10633   1.143   2.189   2.883  0.7275 -0.9055 -2.6382
   80POPC   C2410634   1.077   2.376   2.961  1.1967 -0.7338  0.2151
   80POPC   H4R10635   0.976   2.380   2.915  0.4183 -0.7630  1.8785
   80POPC   H4S10636   1.101   2.484   2.959  1.2712 -0.7446 -1.4201
   80POPC   C2510637   1.065   2.313   3.105 -0.0793 -0.3581 -0.5125
   80POPC   H5R10638   1.164   2.302   3.154 -0.2561 -1.5515 -0.4031
   80POPC   H5S10639   1.032   2.207   3.108  4.1038 -1.8465  0.0039
   80POPC   C2610640   0.979   2.397   3.203  0.9207  0.0368 -0.8038
   80POPC   H6R10641   1.007   2.353   3.301  0.9747  2.9653  0.6141
   80POPC   H6S10642   0.870   2.387   3.184  0.9979  0.4759 -1.5282
   80POPC   C2710643   1.012   2.547   3.216 -0.0886  0.5826 -0.0213
   80POPC   H7R10644   0.966   2.604   3.299  0.1919  3.8024 -1.9236
   80POPC   H7S10645   0.966   2.588   3.124 -1.9726 -0.2376  0.5070
   80POPC   C2810646   1.166   2.574   3.222 -0.6129 -0.5525  0.0503
   80POPC   H8R10647   1.183   2.681   3.198  2.0423 -1.1311 -1.0664
   80POPC   H8S10648   1.212   2.513   3.141  0.3915  0.0683  0.1331
   80POPC   C2910649   1.229   2.540   3.352  0.1249 -0.2682  0.0095
   80POPC   H9110650   1.239   2.434   3.381  1.6248 -0.3224 -0.6272
   80POPC  C21010651   1.265   2.629   3.445 -0.0555 -0.1013 -0.2899
   80POPC  H10110652   1.293   2.585   3.542  3.8673 -2.5876 -2.2544
   80POPC  C21110653   1.261   2.775   3.437  0.4626 -0.6213 -0.3527
   80POPC  H11R10654   1.175   2.818   3.381  1.5379  1.0056 -0.8335
   80POPC  H11S10655   1.349   2.815   3.383  1.3382 -1.9869  0.0237
   80POPC  C21210656   1.249   2.847   3.576 -0.3107  0.2856 -1.0534
   80POPC  H12R10657   1.323   2.805   3.648  0.1331  3.1962  0.3369
   80POPC  H12S10658   1.148   2.827   3.617 -0.7362  1.4098 -1.5165
   80POPC  C21310659   1.269   3.003   3.584  0.3293 -0.7189  0.0056
   80POPC  H13R10660   1.187   3.052   3.527  1.0140 -0.0235 -0.4117
   80POPC  H13S10661   1.364   3.035   3.536 -1.2580  2.4308 -1.3773
   80POPC  C21410662   1.279   3.061   3.725  0.2185  0.3079  0.2822
   80POPC  H14R10663   1.191   3.015   3.775 -1.0809  1.0103 -1.2790
   80POPC  H14S10664   1.266   3.171   3.721 -0.4777  0.1746 -2.1012
   80POPC  C21510665   1.402   3.032   3.811 -0.7049  0.3508  0.5921
   80POPC  H15R10666   1.489   3.005   3.747  0.1917  3.0625  0.5392
   80POPC  H15S10667   1.379   2.943   3.875 -2.4864  0.9335  0.8164
   80POPC  C21610668   1.438   3.145   3.902  0.1493  0.0801 -0.2282
   80POPC  H16R10669   1.349   3.190   3.950  0.3283 -0.4397  0.6096
   80POPC  H16S10670   1.489   3.227   3.846  0.6024  0.0573  0.1401
   80POPC  C21710671   1.529   3.101   4.018 -0.5179 -0.6687  0.5625
   80POPC  H17R10672   1.632   3.070   3.989  0.1754  0.3071  1.8928
   80POPC  H17S10673   1.482   3.024   4.083 -1.0761 -0.1120  0.8260
   80POPC  C21810674   1.543   3.209   4.118 -0.3964 -0.1204 -0.5473
   80POPC  H18R10675   1.449   3.199   4.176 -0.4553 -0.9251 -0.7616
   80POPC  H18S10676   1.550   3.312   4.078  0.0914 -0.3987 -1.2014
   80POPC  H18T10677   1.617   3.187   4.198 -1.4667  4.6038  2.1204
   80POPC   C3310678   1.541   2.252   3.054  1.1677  0.0330  0.2133
   80POPC   H3X10679   1.501   2.161   3.102  0.5935  0.6723  0.9610
   80POPC   H3Y10680   1.450   2.306   3.022  1.6612  1.1452  0.6508
   80POPC   C3410681   1.603   2.345   3.169  0.3108 -0.3745 -0.4491
   80POPC   H4X10682   1.527   2.368   3.247  2.2832 -0.5779  1.6472
   80POPC   H4Y10683   1.626   2.447   3.130  5.2803 -0.1938  2.1372
   80POPC   C3510684   1.726   2.288   3.240  0.4029  0.1454  0.1445
   80POPC   H5X10685   1.811   2.282   3.168  1.5467  1.9704  1.2832
   80POPC   H5Y10686   1.711   2.186   3.282  1.2610 -0.9261 -1.9689
   80POPC   C3610687   1.770   2.382   3.361 -0.1646  0.6157 -0.4394
   80POPC   H6X10688   1.783   2.487   3.324 -0.7358  0.8347 -0.0250
   80POPC   H6Y10689   1.874   2.352   3.387 -0.7969  0.6628  2.4328
   80POPC   C3710690   1.686   2.380   3.492  0.3859 -0.0484 -0.6090
   80POPC   H7X10691   1.663   2.271   3.494  1.9534 -0.4042  1.5436
   80POPC   H7Y10692   1.594   2.439   3.473  0.8198  0.6302 -0.6231
   80POPC   C3810693   1.766   2.401   3.614  0.5349 -0.3879 -0.8071
   80POPC   H8X10694   1.829   2.490   3.594  1.2039 -1.0186 -1.5972
   80POPC   H8Y10695   1.845   2.322   3.616  0.9368 -0.0554  3.3740
   80POPC   C3910696   1.694   2.411   3.747  0.7275  0.7949 -0.2829
   80POPC   H9X10697   1.638   2.315   3.746  0.5276  0.9122 -0.2882
   80POPC   H9Y10698   1.617   2.489   3.763 -2.2128 -2.0534  0.6767
   80POPC  C31010699   1.783   2.421   3.868 -0.8462 -0.3398 -0.1198
   80POPC  H10X10700   1.857   2.504   3.868 -1.2982  0.1978 -3.4615
   80POPC  H10Y10701   1.847   2.332   3.884  1.3374  1.1053 -0.4215
   80POPC  C31110702   1.695   2.438   4.001  0.0572 -0.3378  0.4923
   80POPC  H11X10703   1.623   2.354   3.997  1.6569 -1.7811  1.1412
   80POPC  H11Y10704   1.640   2.533   3.980  1.6808  0.7659  1.0659
   80POPC  C31210705   1.765   2.449   4.132 -0.0681  0.1934 -0.3906
   80POPC  H12X10706   1.856   2.512   4.132  0.2766 -0.2971  0.3250
   80POPC  H12Y10707   1.804   2.350   4.163  0.5391  0.1633 -1.2125
   80POPC  C31310708   1.662   2.487   4.237 -0.1739  0.2558 -0.6531
   80POPC  H13X10709   1.588   2.404   4.238 -0.4971  0.5399  0.3851
   80POPC  H13Y10710   1.610   2.582   4.213 -0.1192  0.6172  0.6176
   80POPC  C31410711   1.724   2.500   4.373  0.3728 -0.1510  0.0854
   80POPC  H14X10712   1.743   2.608   4.390  0.3686  0.3141 -2.4315
   80POPC  H14Y10713   1.823   2.449   4.381 -0.1700 -0.8925  3.7803
   80POPC  C31510714   1.646   2.433   4.489  0.4667 -0.2991  1.2052
   80POPC  H15X10715   1.640   2.325   4.464 -1.1905 -0.2224  1.1477
   80POPC  H15Y10716   1.542   2.472   4.490  0.7541  0.4766  1.1129
   80POPC  C31610717   1.698   2.471   4.629  0.9353 -0.2594  0.3089
   80POPC  H16X10718   1.808   2.452   4.632  0.6006 -2.3433  2.7276
   80POPC  H16Y10719   1.652   2.414   4.713 -1.9619 -1.4292 -1.8822
   80POPC  H16Z10720   1.695   2.582   4.633  2.3115 -0.1351 -0.9203
   81POPC     N10721   2.586   1.536   2.774 -0.2316 -0.5725 -0.1463
   81POPC   C1210722   2.479   1.440   2.833  0.9973 -0.0879 -0.1174
   81POPC  H12A10723   2.384   1.454   2.784  0.3354 -0.2721  1.0525
   81POPC  H12B10724   2.462   1.471   2.935  0.2412 -1.8351  0.3365
   81POPC   C1310725   2.720   1.505   2.844  0.1707 -0.4961  0.3164
   81POPC  H13A10726   2.713   1.508   2.952 -0.1116  1.4523  0.2825
   81POPC  H13B10727   2.758   1.408   2.816 -0.7538 -1.1909  1.3811
   81POPC  H13C10728   2.796   1.573   2.809  0.6348 -1.3939 -0.4840
   81POPC   C1410729   2.583   1.529   2.625  0.0596 -0.2124  0.4167
   81POPC  H14A10730   2.612   1.430   2.593  0.2296  0.4769 -1.7691
   81POPC  H14B10731   2.491   1.554   2.574  0.7268  3.3616  0.7262
   81POPC  H14C10732   2.664   1.593   2.592 -0.4097  0.8803  1.3225
   81POPC   C1510733   2.545   1.674   2.813  0.1289 -0.7244 -0.0901
   81POPC  H15A10734   2.451   1.711   2.777  0.0820 -2.0810 -1.4616
   81POPC  H15B10735   2.610   1.744   2.764 -3.2665  1.0555 -2.4034
   81POPC  H15C10736   2.544   1.684   2.921  1.1003  2.3078 -0.2794
   81POPC   C1110737   2.510   1.292   2.846  0.2559  0.2249 -0.0717
   81POPC  H11A10738   2.450   1.254   2.931 -1.7629  1.9484 -0.6466
   81POPC  H11B10739   2.614   1.258   2.865  0.0663 -0.2963  0.0429
   81POPC     P10740   2.332   1.202   2.656 -0.1324 -0.2669  0.3369
   81POPC   O1310741   2.361   1.149   2.520  0.1451  0.3918  0.0350
   81POPC   O1410742   2.246   1.321   2.653  0.3557  0.0494  0.8595
   81POPC   O1210743   2.472   1.229   2.723 -0.9951  0.0501  0.3002
   81POPC   O1110744   2.260   1.092   2.746 -0.2582  0.0913 -0.0661
   81POPC    C110745   2.328   0.991   2.819  0.2731  0.4027 -0.1375
   81POPC    HA10746   2.432   1.023   2.844  0.8937 -0.6995 -1.1728
   81POPC    HB10747   2.344   0.898   2.760  1.2257  0.9205 -0.7418
   81POPC    C210748   2.259   0.955   2.948 -0.7302  0.0694  0.1710
   81POPC    HS10749   2.162   0.907   2.921 -0.6796  0.6437 -1.0927
   81POPC   O2110750   2.246   1.076   3.036 -0.3602  0.1099 -0.8272
   81POPC   C2110751   2.158   1.068   3.135  0.1049 -0.7902  0.4776
   81POPC   O2210752   2.090   0.970   3.153 -0.4272  0.3863 -0.4543
   81POPC   C2210753   2.164   1.194   3.222 -0.8452 -0.5005  0.5580
   81POPC   H2R10754   2.071   1.254   3.227  0.2511  1.1914  1.8777
   81POPC   H2S10755   2.238   1.262   3.174 -2.2135  0.7764  0.1897
   81POPC    C310756   2.339   0.845   3.027 -0.2266 -0.3552 -0.2190
   81POPC    HX10757   2.318   0.749   2.976 -2.2246  0.9878 -2.1396
   81POPC    HY10758   2.293   0.830   3.127  2.1441 -0.9151  0.8430
   81POPC   O3110759   2.479   0.878   3.022 -0.3309  1.0233 -0.0477
   81POPC   C3110760   2.536   0.923   3.135 -0.2711  0.4593 -0.1202
   81POPC   O3210761   2.490   0.898   3.247  0.1201  0.4208  0.2076
   81POPC   C3210762   2.658   1.020   3.113  0.2433  0.5146 -0.9404
   81POPC   H2X10763   2.669   1.101   3.188  1.0727 -0.8114  0.4215
   81POPC   H2Y10764   2.647   1.068   3.013  1.6414 -1.5079 -2.1511
   81POPC   C2310765   2.223   1.154   3.360  0.1680 -0.7657 -0.8070
   81POPC   H3R10766   2.310   1.085   3.344  0.5283 -0.6165  0.4372
   81POPC   H3S10767   2.151   1.109   3.431  1.3214 -0.0500  0.8763
   81POPC   C2410768   2.292   1.273   3.430 -0.8114 -0.7406 -0.6061
   81POPC   H4R10769   2.350   1.323   3.350  0.1997 -0.0511  0.5231
   81POPC   H4S10770   2.366   1.238   3.505 -3.6836 -1.3754  2.1490
   81POPC   C2510771   2.202   1.363   3.515 -0.2202 -0.2759 -0.4922
   81POPC   H5R10772   2.169   1.316   3.610  2.1015 -3.2241 -0.9724
   81POPC   H5S10773   2.116   1.392   3.451  2.2232  2.8085 -2.6953
   81POPC   C2610774   2.273   1.490   3.568 -0.3499  0.7181  0.5133
   81POPC   H6R10775   2.315   1.544   3.481  1.5050 -1.3614  0.0308
   81POPC   H6S10776   2.358   1.452   3.629 -1.1730 -2.4694 -0.1393
   81POPC   C2710777   2.171   1.571   3.659  0.0598  0.3421  0.1717
   81POPC   H7R10778   2.118   1.494   3.720 -1.9800  1.6925  0.1854
   81POPC   H7S10779   2.092   1.618   3.597 -1.4204 -1.2874  0.7464
   81POPC   C2810780   2.254   1.658   3.750  0.1679 -0.1039  0.6958
   81POPC   H8R10781   2.323   1.712   3.681 -0.8583 -3.5547 -3.4319
   81POPC   H8S10782   2.321   1.591   3.809  1.0617 -2.5196 -2.7111
   81POPC   C2910783   2.168   1.757   3.826 -0.4094 -0.0200 -0.7156
   81POPC   H9110784   2.150   1.857   3.783 -2.8536  0.1019  0.4278
   81POPC  C21010785   2.099   1.729   3.936 -0.0472 -0.2809 -0.0690
   81POPC  H10110786   2.033   1.802   3.985 -0.2959  0.2103 -1.1100
   81POPC  C21110787   2.118   1.599   4.004  0.3387  0.5021  0.3783
   81POPC  H11R10788   2.168   1.517   3.947  0.8098  0.3671  0.9798
   81POPC  H11S10789   2.012   1.586   4.035 -0.0869  1.8417 -0.4409
   81POPC  C21210790   2.198   1.617   4.127 -0.3316 -0.5737 -0.1267
   81POPC  H12R10791   2.160   1.707   4.179  0.5265  0.0299 -0.5239
   81POPC  H12S10792   2.304   1.636   4.100 -0.3151 -0.2101  0.1978
   81POPC  C21310793   2.179   1.502   4.230  0.9294  0.3371  0.8824
   81POPC  H13R10794   2.277   1.464   4.264  0.5625 -0.6849  0.8434
   81POPC  H13S10795   2.134   1.413   4.182 -0.5451  0.6085  1.6807
   81POPC  C21410796   2.111   1.549   4.357 -0.2549 -0.2316 -0.0862
   81POPC  H14R10797   2.007   1.587   4.345 -0.3195  0.4200  2.0137
   81POPC  H14S10798   2.164   1.641   4.391 -0.4842 -0.1447  0.0430
   81POPC  C21510799   2.122   1.451   4.469 -0.2126 -0.6797  0.3154
   81POPC  H15R10800   2.221   1.402   4.467  1.1042  1.8107 -1.7338
   81POPC  H15S10801   2.042   1.375   4.451 -0.3383 -0.9518  1.8705
   81POPC  C21610802   2.096   1.529   4.595  0.2001 -0.0281  0.4341
   81POPC  H16R10803   1.988   1.558   4.597  0.0697 -0.4493 -0.2303
   81POPC  H16S10804   2.171   1.610   4.600 -1.0120  1.1522 -0.0429
   81POPC  C21710805   2.111   1.452   4.726 -0.0105 -0.9767 -0.8105
   81POPC  H17R10806   2.097   1.530   4.804 -0.8180 -2.0683  0.1659
   81POPC  H17S10807   2.213   1.415   4.749  0.6499  0.5345 -1.1645
   81POPC  C21810808   2.008   1.343   4.751 -0.2097 -0.2939  0.6089
   81POPC  H18R10809   1.903   1.371   4.731  0.3135  0.6434 -1.0567
   81POPC  H18S10810   2.014   1.310   4.857  1.5668  0.9895  0.9636
   81POPC  H18T10811   2.036   1.254   4.691 -0.0129 -0.7246  1.3192
   81POPC   C3310812   2.782   0.933   3.122  0.0249  0.2894  0.2714
   81POPC   H3X10813   2.776   0.862   3.037  1.5910  0.0859  0.2999
   81POPC   H3Y10814   2.785   0.864   3.210 -2.2092 -0.1700  0.0617
   81POPC   C3410815   2.911   0.999   3.099 -0.0497  0.1716 -0.0306
   81POPC   H4X10816   2.931   1.066   3.186 -1.8990 -1.0829  1.4182
   81POPC   H4Y10817   2.925   1.063   3.009 -0.1754  2.3302  1.4091
   81POPC   C3510818   3.029   0.901   3.112  0.0410  0.0924  0.0811
   81POPC   H5X10819   3.024   0.841   3.018  2.4376  1.8516 -1.2952
   81POPC   H5Y10820   3.012   0.834   3.199 -0.8026 -0.6148 -0.6027
   81POPC   C3610821   3.177   0.957   3.112 -0.2338  0.1290 -0.0374
   81POPC   H6X10822   3.191   1.008   3.014  0.0829  0.6733  0.2890
   81POPC   H6Y10823   3.238   0.865   3.127 -0.4929  0.1580  1.3067
   81POPC   C3710824   3.228   1.059   3.217 -0.1144  0.5225  0.0890
   81POPC   H7X10825   3.191   1.029   3.318 -0.2940 -0.0166 -0.1298
   81POPC   H7Y10826   3.174   1.156   3.205  1.0803  1.2919  0.8216
   81POPC   C3810827   3.380   1.087   3.218 -1.0495  0.1980  0.0842
   81POPC   H8X10828   3.407   1.139   3.124 -0.7438  1.6493  0.9321
   81POPC   H8Y10829   3.427   0.987   3.218 -1.8911 -0.2097 -0.3382
   81POPC   C3910830   3.428   1.162   3.342 -0.0561 -0.0099  0.3357
   81POPC   H9X10831   3.390   1.263   3.316 -0.7227 -0.6851 -1.4890
   81POPC   H9Y10832   3.539   1.157   3.343  0.0054 -0.5032  4.2606
   81POPC  C31010833   3.387   1.110   3.478  0.1247 -0.0601 -0.3107
   81POPC  H10X10834   3.425   1.007   3.491  0.8237  0.3857  1.3134
   81POPC  H10Y10835   3.276   1.110   3.488 -0.2112  1.8402 -2.8370
   81POPC  C31110836   3.436   1.206   3.580 -0.2076 -0.4934 -0.0809
   81POPC  H11X10837   3.378   1.300   3.567 -0.6439 -0.4217  2.0385
   81POPC  H11Y10838   3.539   1.237   3.555 -0.3066  0.6554  0.8814
   81POPC  C31210839   3.426   1.148   3.727 -0.0617 -0.1585 -1.1153
   81POPC  H12X10840   3.499   1.065   3.729 -1.2043 -1.1831 -1.2550
   81POPC  H12Y10841   3.325   1.103   3.730 -1.1493  2.1375 -0.4341
   81POPC  C31310842   3.442   1.252   3.841 -0.6116  1.0111 -0.5278
   81POPC  H13X10843   3.372   1.337   3.826 -0.2460  1.2927 -0.6548
   81POPC  H13Y10844   3.545   1.293   3.837  0.0172 -0.6032 -2.4154
   81POPC  C31410845   3.409   1.198   3.983  0.7685  0.0455  0.3155
   81POPC  H14X10846   3.475   1.110   4.003 -1.2625 -1.2463  1.8267
   81POPC  H14Y10847   3.305   1.159   3.978  0.3082  1.0280  1.6146
   81POPC  C31510848   3.415   1.297   4.095 -0.2632  0.0771 -0.1664
   81POPC  H15X10849   3.356   1.387   4.069  0.1298 -0.1636 -2.0893
   81POPC  H15Y10850   3.517   1.336   4.114  0.5189 -1.8418 -0.2171
   81POPC  C31610851   3.371   1.227   4.224 -0.1634  0.1909 -0.3338
   81POPC  H16X10852   3.400   1.292   4.308  0.8081 -3.5017  2.4629
   81POPC  H16Y10853   3.433   1.135   4.238  0.2712  0.0702 -2.5859
   81POPC  H16Z10854   3.262   1.206   4.227 -0.0303 -0.6263 -0.7261
   82POPC     N10855   2.072   4.138   2.250 -0.4699 -0.2506 -0.4200
   82POPC   C1210856   1.933   4.140   2.318  0.8712  0.5049 -0.7687
   82POPC  H12A10857   1.885   4.049   2.287 -3.1699  2.7457 -1.8437
   82POPC  H12B10858   1.867   4.214   2.274 -0.6886 -0.9899 -1.0328
   82POPC   C1310859   2.153   4.258   2.291  0.1125 -0.2854 -0.0198
   82POPC  H13A10860   2.177   4.246   2.395 -0.5353 -2.0230 -0.0504
   82POPC  H13B10861   2.250   4.257   2.243 -0.9742 -0.1903 -2.3615
   82POPC  H13C10862   2.108   4.354   2.270  2.3173  1.2275  1.6602
   82POPC   C1410863   2.144   4.022   2.310  0.5438  0.2491  0.4060
   82POPC  H14A10864   2.097   3.928   2.282 -0.5530  1.0606 -0.6164
   82POPC  H14B10865   2.245   4.015   2.272  0.0454  0.1607 -0.9808
   82POPC  H14C10866   2.151   4.036   2.416 -1.4535 -1.5053  0.8319
   82POPC   C1510867   2.064   4.126   2.109  0.6583  0.4888  0.7838
   82POPC  H15A10868   2.158   4.102   2.060  0.7948 -0.3943  1.4453
   82POPC  H15B10869   2.023   4.217   2.069 -0.5641  0.7203  2.4975
   82POPC  H15C10870   2.010   4.034   2.091  1.5311 -0.1069  1.0806
   82POPC   C1110871   1.927   4.133   2.472 -0.2127 -0.4066  0.3049
   82POPC  H11A10872   1.971   4.224   2.517 -0.7640  0.5260 -0.9908
   82POPC  H11B10873   1.972   4.041   2.515  0.6554 -0.2673 -0.2810
   82POPC     P10874   1.709   4.262   2.541 -0.7664  0.1435 -0.0033
   82POPC   O1310875   1.571   4.223   2.575 -0.0646 -0.2012 -0.3821
   82POPC   O1410876   1.723   4.359   2.427 -0.1887 -0.3321  0.3016
   82POPC   O1210877   1.792   4.127   2.518 -0.2711  0.1917  0.8345
   82POPC   O1110878   1.774   4.332   2.671 -0.0913  0.0611 -0.3702
   82POPC    C110879   1.855   4.261   2.763  0.6219  0.3382 -0.4567
   82POPC    HA10880   1.933   4.324   2.811  1.0164  0.2008 -0.9215
   82POPC    HB10881   1.918   4.181   2.718  0.6473  0.0392  0.1016
   82POPC    C210882   1.767   4.202   2.873  0.0808 -0.2033 -0.1275
   82POPC    HS10883   1.714   4.124   2.814  0.7376 -0.1760 -0.7625
   82POPC   O2110884   1.680   4.311   2.924 -0.3947  0.2285  0.4216
   82POPC   C2110885   1.578   4.267   2.985 -0.3970 -0.2176  0.2929
   82POPC   O2210886   1.534   4.151   2.981 -0.1646  0.3674 -0.1987
   82POPC   C2210887   1.506   4.383   3.049 -0.1373  0.8137 -0.0273
   82POPC   H2R10888   1.399   4.366   3.024 -0.1160  1.2304 -0.4134
   82POPC   H2S10889   1.549   4.476   3.008 -1.1291  1.0896 -0.4670
   82POPC    C310890   1.857   4.127   2.973  0.6727 -0.3113  0.1472
   82POPC    HX10891   1.908   4.044   2.920  2.4144  0.5746  0.3768
   82POPC    HY10892   1.784   4.075   3.039  1.5213 -1.8190 -0.0484
   82POPC   O3110893   1.948   4.212   3.039 -0.7312  0.1909  0.4571
   82POPC   C3110894   2.018   4.148   3.127 -0.0949 -0.6071 -0.0575
   82POPC   O3210895   2.022   4.030   3.157  0.5242 -0.1635  0.0598
   82POPC   C3210896   2.105   4.250   3.198  0.4756 -0.8911 -0.0912
   82POPC   H2X10897   2.039   4.334   3.230  0.5384 -1.3054  1.1972
   82POPC   H2Y10898   2.181   4.278   3.121  0.3550  0.1556  0.1488
   82POPC   C2310899   1.516   4.385   3.201  0.0459 -0.3919 -0.2496
   82POPC   H3R10900   1.468   4.292   3.238 -0.9038 -0.3902 -1.4362
   82POPC   H3S10901   1.458   4.471   3.239  0.2028 -1.0168  1.5358
   82POPC   C2410902   1.662   4.405   3.253  0.9924  0.6550 -0.1674
   82POPC   H4R10903   1.706   4.478   3.182  0.5476  0.5690 -0.5374
   82POPC   H4S10904   1.726   4.315   3.236  2.5009  1.4402  1.1406
   82POPC   C2510905   1.663   4.441   3.394  0.4605 -0.4443 -0.2596
   82POPC   H5R10906   1.648   4.350   3.456  1.9507 -0.9839 -0.6644
   82POPC   H5S10907   1.591   4.518   3.429  2.3390  1.1720  0.2251
   82POPC   C2610908   1.800   4.497   3.434 -0.6715  0.2094  0.2929
   82POPC   H6R10909   1.805   4.601   3.394 -0.8880  0.2570  0.3872
   82POPC   H6S10910   1.883   4.431   3.402  0.9818  2.9847 -1.5494
   82POPC   C2710911   1.832   4.511   3.583 -0.3198  0.8690  0.4064
   82POPC   H7R10912   1.825   4.411   3.630  0.4289 -1.2275 -3.4859
   82POPC   H7S10913   1.767   4.591   3.626 -3.0825 -0.0295 -1.8255
   82POPC   C2810914   1.977   4.558   3.618  0.5930  0.3915 -0.1121
   82POPC   H8R10915   2.053   4.486   3.580  0.4599  0.8830 -1.3414
   82POPC   H8S10916   1.987   4.561   3.729  2.0560 -2.4865 -0.0821
   82POPC   C2910917   2.016   4.692   3.569  0.2389 -0.0986 -0.6269
   82POPC   H9110918   2.011   4.700   3.459  1.9963  1.4191 -0.6479
   82POPC  C21010919   2.076   4.791   3.639  0.5987 -0.3358  0.7607
   82POPC  H10110920   2.119   4.877   3.586 -1.0907  1.0065  1.4476
   82POPC  C21110921   2.092   4.791   3.795  0.0538  0.4082 -0.2782
   82POPC  H11R10922   2.185   4.738   3.824 -2.0831 -2.2708  2.3310
   82POPC  H11S10923   2.009   4.738   3.846  0.4201 -2.2611 -2.2186
   82POPC  C21210924   2.103   4.937   3.839  0.4187  0.4318  0.0507
   82POPC  H12R10925   2.010   4.992   3.811 -0.1232 -0.2268  0.5193
   82POPC  H12S10926   2.189   4.986   3.790  0.1574  0.9626  0.1191
   82POPC  C21310927   2.113   4.949   3.990 -0.1792 -0.6403  0.0830
   82POPC  H13R10928   2.199   4.888   4.026 -1.7231 -2.2522  1.2215
   82POPC  H13S10929   2.023   4.902   4.034 -0.7381 -0.3344 -0.7172
   82POPC  C21410930   2.132   5.097   4.034  0.5600  0.3061 -0.2172
   82POPC  H14R10931   2.045   5.156   3.999 -1.8773 -1.3246  2.6350
   82POPC  H14S10932   2.220   5.136   3.979 -0.4267 -2.7701 -4.5298
   82POPC  C21510933   2.161   5.109   4.184 -0.1305 -0.7190 -0.5755
   82POPC  H15R10934   2.124   5.016   4.232  1.4002 -0.9637  0.1773
   82POPC  H15S10935   2.109   5.195   4.231  0.3005 -0.2964 -0.8555
   82POPC  C21610936   2.312   5.136   4.221 -0.2315  0.0348 -0.1811
   82POPC  H16R10937   2.336   5.239   4.187 -0.4946  0.3138  0.4731
   82POPC  H16S10938   2.375   5.074   4.153 -0.4190 -0.0270 -0.2998
   82POPC  C21710939   2.355   5.110   4.365 -0.3811 -0.4318  0.3195
   82POPC  H17R10940   2.465   5.104   4.370 -0.2915  0.4292 -0.4258
   82POPC  H17S10941   2.308   5.019   4.410  1.4696 -2.1879 -1.1517
   82POPC  C21810942   2.320   5.232   4.459  0.1094  0.1959 -0.1521
   82POPC  H18R10943   2.209   5.234   4.463  0.1244  0.0850  0.4012
   82POPC  H18S10944   2.373   5.325   4.430  1.9150 -0.6119  0.4519
   82POPC  H18T10945   2.349   5.205   4.563 -0.5196 -0.6118 -0.1748
   82POPC   C3310946   2.174   4.205   3.328 -0.3134  0.3033 -0.1158
   82POPC   H3X10947   2.228   4.109   3.326 -1.7212 -0.5253  0.3019
   82POPC   H3Y10948   2.083   4.186   3.389  0.4313 -0.3705  0.8058
   82POPC   C3410949   2.255   4.323   3.392 -0.3985  0.2657 -0.1647
   82POPC   H4X10950   2.195   4.413   3.367 -0.5810  0.0414 -0.5519
   82POPC   H4Y10951   2.351   4.336   3.337  0.8184 -1.2017  1.4989
   82POPC   C3510952   2.286   4.294   3.536 -0.7257 -0.0771 -0.2676
   82POPC   H5X10953   2.336   4.195   3.541 -0.3734  0.1118 -0.0397
   82POPC   H5Y10954   2.187   4.288   3.587 -0.3887 -0.2716  0.3710
   82POPC   C3610955   2.360   4.406   3.613  0.2255 -0.3208  0.0537
   82POPC   H6X10956   2.298   4.496   3.597 -1.2529 -0.9517  1.9344
   82POPC   H6Y10957   2.465   4.420   3.579  0.1389 -0.0351 -0.0949
   82POPC   C3710958   2.358   4.380   3.763 -0.4614 -0.0101  0.0833
   82POPC   H7X10959   2.408   4.282   3.778  0.2918  0.0669 -1.7191
   82POPC   H7Y10960   2.254   4.375   3.803 -0.6413  1.1819 -0.1976
   82POPC   C3810961   2.439   4.480   3.849 -0.1913  0.1278  0.6671
   82POPC   H8X10962   2.420   4.459   3.957  1.5999 -1.2556  0.7532
   82POPC   H8Y10963   2.405   4.581   3.820 -1.4207 -0.5606 -0.3616
   82POPC   C3910964   2.592   4.473   3.831 -0.3618  0.1957  0.0947
   82POPC   H9X10965   2.636   4.575   3.827  2.3026 -0.7565  2.0067
   82POPC   H9Y10966   2.604   4.427   3.731 -0.6121 -1.3101  0.7286
   82POPC  C31010967   2.671   4.388   3.934  0.0358  0.3917 -0.6620
   82POPC  H10X10968   2.777   4.417   3.921  0.4917 -0.1825  1.3647
   82POPC  H10Y10969   2.648   4.281   3.912 -1.6582  1.2140 -3.4413
   82POPC  C31110970   2.640   4.416   4.091  0.2293  0.1141  0.1153
   82POPC  H11X10971   2.531   4.399   4.107  0.1120  0.1136 -0.6217
   82POPC  H11Y10972   2.677   4.519   4.109 -0.2435  0.3674 -0.3169
   82POPC  C31210973   2.715   4.329   4.189  0.6481  0.0174  0.6733
   82POPC  H12X10974   2.711   4.372   4.291  0.5692 -1.6786  1.4306
   82POPC  H12Y10975   2.818   4.308   4.154  0.6037 -1.8576  1.5186
   82POPC  C31310976   2.642   4.193   4.213  0.7585 -0.8750 -0.0580
   82POPC  H13X10977   2.632   4.156   4.109  1.1694  1.4706 -0.9984
   82POPC  H13Y10978   2.535   4.210   4.238  0.8684 -1.4739  0.8781
   82POPC  C31410979   2.722   4.105   4.301 -0.3935  0.2418  0.2272
   82POPC  H14X10980   2.683   4.102   4.405  0.4404 -0.5888  0.5292
   82POPC  H14Y10981   2.829   4.134   4.299 -0.5747  0.9665 -1.6670
   82POPC  C31510982   2.738   3.963   4.251  0.5195 -0.1764 -0.0238
   82POPC  H15X10983   2.825   3.925   4.309 -0.3347 -0.2603  1.2414
   82POPC  H15Y10984   2.762   3.965   4.142 -1.9598 -1.4768 -0.6953
   82POPC  C31610985   2.609   3.879   4.282 -0.5406  0.3983  0.0845
   82POPC  H16X10986   2.533   3.909   4.206  0.7848  0.7091 -1.1745
   82POPC  H16Y10987   2.582   3.902   4.387 -2.0058 -1.3732  0.1553
   82POPC  H16Z10988   2.634   3.772   4.266 -3.6630 -0.4814  0.3498
   83POPC     N10989   4.003   0.271   2.275 -0.3100 -0.1526  0.1335
   83POPC   C1210990   4.062   0.412   2.310 -0.1539 -0.1972  0.3914
   83POPC  H12A10991   4.133   0.433   2.232  0.8879 -3.1560  0.4152
   83POPC  H12B10992   4.130   0.404   2.394 -0.0272  0.9431  0.4088
   83POPC   C1310993   3.899   0.235   2.383 -0.0908  0.3706 -0.1334
   83POPC  H13A10994   3.812   0.298   2.386  0.5991  1.5122 -2.2315
   83POPC  H13B10995   3.869   0.133   2.368 -0.3262  0.3183  0.6816
   83POPC  H13C10996   3.946   0.239   2.480  0.0859  0.5078 -0.2220
   83POPC   C1410997   3.945   0.276   2.137 -0.4906 -0.4751  0.3685
   83POPC  H14A10998   4.009   0.330   2.069 -2.1175  0.8524 -0.1659
   83POPC  H14B10999   3.915   0.177   2.108  0.6426 -0.7648  0.1344
   83POPC  H14C11000   3.857   0.335   2.159 -0.5748 -0.9737  1.4220
   83POPC   C1511001   4.113   0.174   2.281 -0.1081 -0.4730 -0.4118
   83POPC  H15A11002   4.067   0.080   2.255 -2.1946  0.6181 -0.9037
   83POPC  H15B11003   4.157   0.167   2.380  0.0330 -2.8765 -0.5849
   83POPC  H15C11004   4.200   0.192   2.219  2.5785 -1.8037  2.6870
   83POPC   C1111005   3.955   0.526   2.333 -0.0556  0.0890  0.3333
   83POPC  H11A11006   4.018   0.612   2.364  0.1161  0.0728  0.0408
   83POPC  H11B11007   3.889   0.506   2.420  1.1063 -0.8855  1.0269
   83POPC     P11008   3.751   0.632   2.220 -0.4567  0.0055 -0.3614
   83POPC   O1311009   3.641   0.550   2.176  0.0131 -0.3498 -0.1027
   83POPC   O1411010   3.774   0.756   2.140 -0.5392  0.1318 -0.3858
   83POPC   O1211011   3.883   0.546   2.214 -0.2187 -0.1159  0.4835
   83POPC   O1111012   3.734   0.669   2.377 -0.2675 -0.0199 -0.0516
   83POPC    C111013   3.672   0.795   2.418  0.4800 -0.1987 -0.0369
   83POPC    HA11014   3.578   0.778   2.476 -0.2898  0.6104 -1.0143
   83POPC    HB11015   3.636   0.868   2.342 -2.4991 -0.9343  0.5519
   83POPC    C211016   3.766   0.877   2.515  0.3071  0.4017  0.1544
   83POPC    HS11017   3.855   0.911   2.457 -0.4138  3.1866  0.5581
   83POPC   O2111018   3.800   0.777   2.619  0.9092  0.0067 -0.2722
   83POPC   C2111019   3.905   0.807   2.688 -0.0731  0.0660  0.0257
   83POPC   O2211020   3.990   0.892   2.659 -0.6640  0.7415  0.0069
   83POPC   C2211021   3.915   0.702   2.797 -0.1609 -0.5767 -0.1532
   83POPC   H2R11022   3.980   0.623   2.754  1.8631  0.2168  1.2789
   83POPC   H2S11023   3.820   0.645   2.810  0.8319 -2.2250  0.2005
   83POPC    C311024   3.711   1.006   2.572  0.8144  0.2991 -0.2042
   83POPC    HX11025   3.694   1.080   2.491 -0.7591  1.3864  1.0478
   83POPC    HY11026   3.785   1.056   2.638  0.9432 -0.6825  0.4194
   83POPC   O3111027   3.583   0.991   2.638  0.7031  0.5234  0.0742
   83POPC   C3111028   3.582   0.960   2.768  0.1590 -0.5683  0.6947
   83POPC   O3211029   3.681   0.964   2.842  0.0782 -0.1477 -0.2750
   83POPC   C3211030   3.446   0.938   2.819  0.1534 -0.1267 -0.2488
   83POPC   H2X11031   3.381   1.022   2.786  2.3770  1.0279 -1.9562
   83POPC   H2Y11032   3.444   0.956   2.929  0.1610  0.2169 -0.3051
   83POPC   C2311033   3.970   0.768   2.923  0.0515  0.9098 -0.0638
   83POPC   H3R11034   3.894   0.837   2.966 -1.4030  0.2026 -1.3879
   83POPC   H3S11035   4.061   0.827   2.900  0.9546  0.2313  1.6429
   83POPC   C2411036   4.010   0.661   3.020 -0.2769 -0.1972  0.6767
   83POPC   H4R11037   4.060   0.703   3.110 -2.6183  0.4922  1.7385
   83POPC   H4S11038   4.075   0.584   2.973  1.2910  0.7032  1.2945
   83POPC   C2511039   3.878   0.600   3.072 -0.0362  0.5448 -0.1190
   83POPC   H5R11040   3.892   0.499   3.116 -0.4381  0.7166  0.4159
   83POPC   H5S11041   3.805   0.585   2.990  1.8914  1.3602 -2.0848
   83POPC   C2611042   3.809   0.689   3.183  0.2538  0.7353  0.4448
   83POPC   H6R11043   3.705   0.652   3.194  1.1225 -1.6503  1.1854
   83POPC   H6S11044   3.804   0.796   3.153  1.7326  1.0062  1.0892
   83POPC   C2711045   3.869   0.684   3.324 -0.2559 -0.1120  0.2554
   83POPC   H7R11046   3.974   0.719   3.329 -0.2781  0.2611 -1.2535
   83POPC   H7S11047   3.874   0.575   3.344 -0.0386 -0.2664 -0.5827
   83POPC   C2811048   3.782   0.753   3.423 -0.0262  0.4618 -0.0681
   83POPC   H8R11049   3.798   0.717   3.527  1.1964  1.1035 -0.0267
   83POPC   H8S11050   3.676   0.728   3.398 -0.1149 -0.1502  0.8639
   83POPC   C2911051   3.804   0.905   3.414  0.1157 -0.0905 -0.2142
   83POPC   H9111052   3.788   0.954   3.317 -0.4945  0.8439  0.3433
   83POPC  C21011053   3.847   0.984   3.511 -0.1038  0.2543 -0.5028
   83POPC  H10111054   3.867   1.089   3.484  0.1967  1.1828  2.8385
   83POPC  C21111055   3.902   0.951   3.648 -0.0497  0.9072  0.1731
   83POPC  H11R11056   4.007   0.987   3.650  0.3419 -0.2061  0.7994
   83POPC  H11S11057   3.909   0.840   3.656  0.8583  0.8615 -1.1001
   83POPC  C21211058   3.817   1.010   3.764  0.7382 -0.5194 -0.0046
   83POPC  H12R11059   3.718   0.960   3.775  0.1276  0.7359  0.4047
   83POPC  H12S11060   3.817   1.119   3.743  1.5905 -0.6973 -1.0462
   83POPC  C21311061   3.891   0.993   3.898 -0.3382 -0.1231 -0.4907
   83POPC  H13R11062   3.994   1.035   3.891 -0.8267  1.1758 -0.2491
   83POPC  H13S11063   3.901   0.886   3.924 -3.1886 -0.4049 -0.2675
   83POPC  C21411064   3.821   1.084   4.001  0.2563  0.3381 -0.1007
   83POPC  H14R11065   3.712   1.061   4.004  0.2146  0.4426  3.3392
   83POPC  H14S11066   3.834   1.190   3.971  0.1518  0.2226 -0.5549
   83POPC  C21511067   3.866   1.062   4.150  0.6636 -0.1845  0.4517
   83POPC  H15R11068   3.974   1.083   4.160  0.4526  2.1056 -1.2485
   83POPC  H15S11069   3.847   0.956   4.178  1.9592 -0.5775 -0.0731
   83POPC  C21611070   3.779   1.161   4.240 -0.1368 -0.2735  0.2988
   83POPC  H16R11071   3.671   1.154   4.213  0.2611  0.4459 -1.7060
   83POPC  H16S11072   3.803   1.267   4.216 -1.4711  0.2937  1.3403
   83POPC  C21711073   3.796   1.143   4.394  0.9833  0.2801  0.7103
   83POPC  H17R11074   3.906   1.126   4.404  1.5298  3.5748  1.5249
   83POPC  H17S11075   3.747   1.047   4.421  0.2646  0.1175 -1.0349
   83POPC  C21811076   3.732   1.262   4.476 -0.1017  0.3440 -0.2440
   83POPC  H18R11077   3.692   1.224   4.573 -1.6163 -1.5765 -1.5477
   83POPC  H18S11078   3.654   1.321   4.425  0.1580  0.0626 -0.9754
   83POPC  H18T11079   3.814   1.328   4.510 -0.1603  0.0052  0.5835
   83POPC   C3311080   3.384   0.798   2.784  0.3164 -0.5228  0.0983
   83POPC   H3X11081   3.396   0.780   2.675  0.5199  1.8579 -0.3360
   83POPC   H3Y11082   3.275   0.807   2.802  0.8504  0.4859  3.4427
   83POPC   C3411083   3.442   0.672   2.857 -0.8034  0.0405 -0.5647
   83POPC   H4X11084   3.551   0.653   2.849 -0.8859  0.1560 -2.1046
   83POPC   H4Y11085   3.402   0.584   2.803 -1.9060  0.7976 -1.0130
   83POPC   C3511086   3.401   0.663   3.004  0.3870 -0.4155  0.4367
   83POPC   H5X11087   3.294   0.690   3.014  0.2365 -1.1055  0.7005
   83POPC   H5Y11088   3.459   0.743   3.056  1.4131  0.9114 -2.5391
   83POPC   C3611089   3.428   0.522   3.062  0.4260 -0.6126  0.2100
   83POPC   H6X11090   3.538   0.511   3.068  0.2083 -3.0289  0.6120
   83POPC   H6Y11091   3.394   0.438   2.997 -0.0076 -0.3980  0.1523
   83POPC   C3711092   3.363   0.510   3.199  0.2259  0.0164 -0.2471
   83POPC   H7X11093   3.384   0.407   3.235  1.6329  0.8230  1.3902
   83POPC   H7Y11094   3.253   0.524   3.198  0.1137 -0.5840  1.6445
   83POPC   C3811095   3.432   0.581   3.318 -0.0864  0.0446  0.1116
   83POPC   H8X11096   3.455   0.687   3.293  3.2739 -0.8755 -1.1124
   83POPC   H8Y11097   3.532   0.534   3.325  0.3743  1.0356  0.4169
   83POPC   C3911098   3.353   0.564   3.442  0.6499 -0.5040 -0.6139
   83POPC   H9X11099   3.350   0.466   3.494  1.5326 -0.3782 -0.2962
   83POPC   H9Y11100   3.252   0.610   3.447  0.3298 -1.2760  0.6926
   83POPC  C31011101   3.420   0.658   3.552  0.2916 -0.3153  0.3228
   83POPC  H10X11102   3.424   0.764   3.517  2.1238 -0.6432 -0.6301
   83POPC  H10Y11103   3.525   0.623   3.563  0.4867 -1.3087 -3.2332
   83POPC  C31111104   3.348   0.668   3.687 -0.4674 -0.2975 -0.2995
   83POPC  H11X11105   3.336   0.567   3.733  1.0450  0.1267  1.1079
   83POPC  H11Y11106   3.244   0.705   3.676 -0.0515  0.5779 -1.5424
   83POPC  C31211107   3.424   0.751   3.786 -0.2712  1.0566  0.4737
   83POPC  H12X11108   3.444   0.854   3.749  0.9837  1.1849  1.4224
   83POPC  H12Y11109   3.532   0.728   3.800  0.6031  3.1534 -1.9284
   83POPC  C31311110   3.367   0.754   3.930  0.3930  0.1735  0.1385
   83POPC  H13X11111   3.452   0.782   3.996 -0.1519 -1.5511  1.6655
   83POPC  H13Y11112   3.319   0.664   3.972  0.8738  0.7966  2.1486
   83POPC  C31411113   3.261   0.871   3.945 -0.1218 -0.6388  0.4548
   83POPC  H14X11114   3.166   0.825   3.910 -0.2384  1.6184 -2.6036
   83POPC  H14Y11115   3.285   0.953   3.874 -0.2293 -0.4244  0.6643
   83POPC  C31511116   3.249   0.930   4.090 -0.4608  0.1817 -0.3976
   83POPC  H15X11117   3.169   1.007   4.089 -1.3478 -0.5931  2.5130
   83POPC  H15Y11118   3.343   0.982   4.119 -1.0825  1.2942 -0.3117
   83POPC  C31611119   3.212   0.828   4.203 -0.0548  0.3294  0.0543
   83POPC  H16X11120   3.213   0.883   4.300 -0.1576  1.8067 -0.7503
   83POPC  H16Y11121   3.299   0.759   4.196 -0.3747 -0.0022 -0.7951
   83POPC  H16Z11122   3.118   0.781   4.170 -0.5422  1.5817 -0.3910
   84POPC     N11123   4.473   4.888   1.903  0.0243 -0.1498 -0.4487
   84POPC   C1211124   4.509   4.984   2.012 -0.1016  0.2136  0.0834
   84POPC  H12A11125   4.436   4.971   2.090 -0.5381  1.0186 -0.1798
   84POPC  H12B11126   4.494   5.088   1.984 -3.2698 -0.1215  0.1160
   84POPC   C1311127   4.568   4.894   1.784  0.5119  0.6568  0.0735
   84POPC  H13A11128   4.668   4.908   1.821 -0.0515  0.9372  1.5842
   84POPC  H13B11129   4.568   4.810   1.716  1.8363  0.9878 -0.3652
   84POPC  H13C11130   4.536   4.982   1.728 -0.0341  0.9305  0.7918
   84POPC   C1411131   4.493   4.755   1.957 -0.3608  0.8658 -0.4088
   84POPC  H14A11132   4.426   4.735   2.039 -0.3838 -0.1300 -0.6604
   84POPC  H14B11133   4.463   4.677   1.889  1.5123  0.4088 -0.7663
   84POPC  H14C11134   4.592   4.734   1.996  0.2842  1.8234 -1.4473
   84POPC   C1511135   4.332   4.904   1.873 -0.3357  0.2797  0.7394
   84POPC  H15A11136   4.293   4.824   1.812  0.7049 -0.5268  1.1171
   84POPC  H15B11137   4.312   4.994   1.817  0.9901 -0.1532 -0.4944
   84POPC  H15C11138   4.274   4.898   1.964 -1.4225 -1.8861 -0.0276
   84POPC   C1111139   4.650   4.969   2.094 -0.0346  0.2208  0.4242
   84POPC  H11A11140   4.638   4.866   2.132 -1.9611 -0.0669 -0.8538
   84POPC  H11B11141   4.650   5.036   2.182  1.4789 -0.8987  1.3441
   84POPC     P11142   4.811   5.120   1.961  0.0491  0.0997 -0.0696
   84POPC   O1311143   4.697   5.200   1.910  0.1823 -0.3683  0.3670
   84POPC   O1411144   4.933   5.111   1.876  0.5785  0.3880 -0.0805
   84POPC   O1211145   4.769   4.972   2.006  0.8738  0.0213 -0.1859
   84POPC   O1111146   4.839   5.192   2.107  0.4173  0.0954  0.2882
   84POPC    C111147   4.964   5.177   2.175  0.1230 -0.8253  0.4473
   84POPC    HA11148   4.980   5.254   2.253 -0.3057  0.6363 -0.8468
   84POPC    HB11149   5.047   5.196   2.103 -1.2413  1.0117 -0.7228
   84POPC    C211150   4.990   5.034   2.234 -0.0607 -0.4007 -0.3317
   84POPC    HS11151   4.999   4.959   2.152  0.3530  3.1589 -3.8369
   84POPC   O2111152   4.874   5.004   2.319 -0.0320  0.0625 -0.3088
   84POPC   C2111153   4.855   4.875   2.338 -0.4216  0.2760 -0.0954
   84POPC   O2211154   4.910   4.789   2.267  0.4544 -0.3696  0.4605
   84POPC   C2211155   4.748   4.845   2.438 -0.3965 -0.2737 -0.1460
   84POPC   H2R11156   4.650   4.892   2.416 -0.8030 -1.0578 -0.0643
   84POPC   H2S11157   4.787   4.883   2.535  0.9454  1.3287 -1.2758
   84POPC    C311158   5.127   5.026   2.307 -0.2731 -0.1275  0.1173
   84POPC    HX11159   5.204   5.050   2.231 -1.0970 -0.6434 -0.9066
   84POPC    HY11160   5.137   4.922   2.346 -1.4273 -0.3444 -0.1195
   84POPC   O3111161   5.145   5.124   2.415  0.1678 -0.6840  0.0191
   84POPC   C3111162   5.102   5.074   2.534  0.1161 -0.0853  0.7084
   84POPC   O3211163   5.080   4.956   2.556 -0.2298  0.2654 -0.0277
   84POPC   C3211164   5.073   5.179   2.637 -0.3098  0.8940  0.7031
   84POPC   H2X11165   5.069   5.278   2.587 -1.0706 -0.4451 -2.0716
   84POPC   H2Y11166   5.152   5.161   2.713 -0.8466 -1.2967  0.8251
   84POPC   C2311167   4.732   4.692   2.448  0.6775 -0.4037  0.0952
   84POPC   H3R11168   4.825   4.647   2.487  0.8803  1.0224  1.3549
   84POPC   H3S11169   4.728   4.651   2.345  1.2488  0.8823 -0.4544
   84POPC   C2411170   4.607   4.644   2.521 -0.2349 -0.2202  0.2828
   84POPC   H4R11171   4.515   4.700   2.492  0.0988  0.1920 -0.0090
   84POPC   H4S11172   4.626   4.688   2.621  1.3012 -0.2742  0.0279
   84POPC   C2511173   4.606   4.494   2.545 -0.4457  0.4457  0.0185
   84POPC   H5R11174   4.704   4.448   2.522 -1.2659 -1.6812  0.5977
   84POPC   H5S11175   4.539   4.435   2.479  1.6999 -0.7730 -1.1763
   84POPC   C2611176   4.564   4.447   2.691  0.3758 -0.4583 -0.2141
   84POPC   H6R11177   4.545   4.337   2.686 -0.1724 -0.3483 -0.5641
   84POPC   H6S11178   4.470   4.500   2.714  0.1880 -0.9540  0.1708
   84POPC   C2711179   4.673   4.465   2.808 -0.6059  0.0696  0.1876
   84POPC   H7R11180   4.700   4.572   2.824 -1.4459  0.2287  0.6337
   84POPC   H7S11181   4.759   4.410   2.765 -1.6022 -1.3196 -0.0999
   84POPC   C2811182   4.641   4.387   2.935 -0.8875  0.1525 -0.2773
   84POPC   H8R11183   4.736   4.392   2.992 -0.8874  2.0992 -0.3798
   84POPC   H8S11184   4.630   4.279   2.911  1.4816 -0.5373  1.3199
   84POPC   C2911185   4.537   4.457   3.013 -0.5612 -0.3109 -0.2457
   84POPC   H9111186   4.506   4.549   2.962 -2.5491  0.0041  1.4398
   84POPC  C21011187   4.497   4.436   3.132 -0.2393  0.0063  0.2018
   84POPC  H10111188   4.439   4.511   3.188  1.4394  2.4642 -1.1424
   84POPC  C21111189   4.548   4.325   3.216 -1.2605  0.4007 -0.6025
   84POPC  H11R11190   4.588   4.359   3.314  0.8504 -0.5749 -1.0624
   84POPC  H11S11191   4.630   4.269   3.168  0.7854  2.9756 -0.3150
   84POPC  C21211192   4.440   4.217   3.242  0.4354  0.0434  0.0738
   84POPC  H12R11193   4.403   4.190   3.141 -0.2905  1.0894  0.0370
   84POPC  H12S11194   4.363   4.266   3.306 -0.5706  0.3879 -1.3511
   84POPC  C21311195   4.505   4.103   3.313 -0.3554  0.0389 -0.4968
   84POPC  H13R11196   4.579   4.055   3.245 -0.1589 -0.8129  0.2854
   84POPC  H13S11197   4.437   4.015   3.312 -2.2819  1.4737 -0.8848
   84POPC  C21411198   4.544   4.121   3.464 -0.4712 -0.2384  0.4258
   84POPC  H14R11199   4.468   4.196   3.496 -1.8089 -1.5774  0.5140
   84POPC  H14S11200   4.643   4.169   3.475  0.0891 -1.7859  3.0197
   84POPC  C21511201   4.536   3.984   3.540 -0.1008  0.1888 -0.0867
   84POPC  H15R11202   4.615   3.916   3.502 -0.3646 -0.0393 -0.2268
   84POPC  H15S11203   4.431   3.946   3.537 -0.5226  1.2991  0.1584
   84POPC  C21611204   4.554   4.007   3.685  0.7740 -0.1663  0.3558
   84POPC  H16R11205   4.542   3.911   3.738 -1.6151  0.3641  0.8485
   84POPC  H16S11206   4.472   4.072   3.722  0.4402 -0.4697  0.1508
   84POPC  C21711207   4.689   4.070   3.713 -0.1088 -0.4713  0.5640
   84POPC  H17R11208   4.698   4.174   3.673 -0.0819  0.3456  2.5679
   84POPC  H17S11209   4.771   4.002   3.683 -0.8269 -1.1252  0.0574
   84POPC  C21811210   4.700   4.087   3.870 -0.6123  0.2927  0.8200
   84POPC  H18R11211   4.806   4.110   3.895 -0.8774 -0.1831  2.5164
   84POPC  H18S11212   4.674   3.994   3.925  2.0440 -0.4647  0.9197
   84POPC  H18T11213   4.631   4.168   3.900 -1.0733  0.1455  0.1807
   84POPC   C3311214   4.930   5.151   2.704  0.2989 -0.1874  0.3470
   84POPC   H3X11215   4.936   5.054   2.757  2.5841 -0.7716 -0.8470
   84POPC   H3Y11216   4.859   5.141   2.619 -0.2299  0.0658  0.7563
   84POPC   C3411217   4.899   5.260   2.809 -0.7430  0.7062  0.3930
   84POPC   H4X11218   4.908   5.355   2.752  0.0633  0.1314 -0.4736
   84POPC   H4Y11219   4.977   5.269   2.887 -0.8770  1.3528  0.4553
   84POPC   C3511220   4.770   5.233   2.887  0.3189 -0.0817  0.0334
   84POPC   H5X11221   4.789   5.142   2.948 -0.8248 -0.4323 -0.1093
   84POPC   H5Y11222   4.683   5.220   2.820 -1.8580  1.7340  2.2942
   84POPC   C3611223   4.739   5.353   2.987  1.2387 -0.4069  0.1408
   84POPC   H6X11224   4.689   5.429   2.923 -0.3696 -0.6427  1.0561
   84POPC   H6Y11225   4.834   5.392   3.030  0.8709  0.1705  0.4475
   84POPC   C3711226   4.645   5.327   3.101  0.9824 -0.1443 -0.0616
   84POPC   H7X11227   4.551   5.280   3.065  1.0771  0.6497 -1.4527
   84POPC   H7Y11228   4.611   5.430   3.126 -1.2680 -0.0615 -2.9203
   84POPC   C3811229   4.700   5.246   3.218 -0.0073  0.2759 -0.1029
   84POPC   H8X11230   4.801   5.282   3.247 -0.2484  1.0511 -0.2073
   84POPC   H8Y11231   4.735   5.148   3.179  0.5446  0.7734 -0.8961
   84POPC   C3911232   4.599   5.229   3.340 -0.3466 -0.1730 -0.5100
   84POPC   H9X11233   4.519   5.168   3.293 -1.1421  1.4154 -1.2945
   84POPC   H9Y11234   4.561   5.328   3.373 -0.6039  0.1745 -1.7934
   84POPC  C31011235   4.652   5.153   3.463 -0.6746 -0.0222  0.4873
   84POPC  H10X11236   4.720   5.213   3.528  0.3717  1.2349 -1.6404
   84POPC  H10Y11237   4.708   5.065   3.425 -0.3479 -0.9082  2.8809
   84POPC  C31111238   4.535   5.099   3.544  0.1982  0.3057  0.0904
   84POPC  H11X11239   4.479   5.025   3.483 -0.3893  0.8426 -0.0236
   84POPC  H11Y11240   4.464   5.183   3.561  0.7136  0.8191 -0.2435
   84POPC  C31211241   4.575   5.032   3.670  0.0265  0.1376 -0.0867
   84POPC  H12X11242   4.674   4.983   3.653  0.8866  1.8290 -0.1052
   84POPC  H12Y11243   4.505   4.947   3.687 -0.4496  0.0222 -2.3386
   84POPC  C31311244   4.593   5.125   3.791 -0.1447 -1.2432  0.1049
   84POPC  H13X11245   4.515   5.204   3.789 -1.8737 -2.8685  0.9504
   84POPC  H13Y11246   4.689   5.181   3.782 -1.7376  1.6814 -0.1068
   84POPC  C31411247   4.592   5.054   3.926 -0.4946 -0.1615 -0.2586
   84POPC  H14X11248   4.498   4.995   3.937 -1.4330  1.3400  0.1388
   84POPC  H14Y11249   4.607   5.125   4.010 -0.4221 -0.0019 -0.4039
   84POPC  C31511250   4.708   4.950   3.940 -0.5172  0.3410 -0.5880
   84POPC  H15X11251   4.797   5.014   3.922 -0.8828  1.2646  0.7197
   84POPC  H15Y11252   4.700   4.873   3.861 -1.8649  0.5940 -0.7300
   84POPC  C31611253   4.729   4.898   4.083  0.8915  0.4538 -0.7243
   84POPC  H16X11254   4.766   4.976   4.153 -0.1833  1.1486 -0.8963
   84POPC  H16Y11255   4.804   4.817   4.078 -0.1478 -0.5173 -1.1396
   84POPC  H16Z11256   4.628   4.865   4.117  1.5270 -0.5401  0.2702
   85POPC     N11257   1.628   5.538   2.096  0.7545 -0.0362 -0.5649
   85POPC   C1211258   1.704   5.424   2.162 -0.7780 -0.4168  1.0498
   85POPC  H12A11259   1.807   5.454   2.154 -1.5806  2.2404 -0.7484
   85POPC  H12B11260   1.700   5.336   2.100  0.0968  0.8169 -0.8339
   85POPC   C1311261   1.620   5.665   2.179 -0.1424  0.3699 -0.3887
   85POPC  H13A11262   1.601   5.644   2.283  1.4651 -0.5269 -0.2431
   85POPC  H13B11263   1.711   5.723   2.171 -1.1360  1.7810 -3.4283
   85POPC  H13C11264   1.547   5.733   2.136 -0.7659  0.1797  0.3540
   85POPC   C1411265   1.693   5.570   1.966 -0.6591 -0.3762  0.2006
   85POPC  H14A11266   1.799   5.592   1.966 -0.8828  0.7242 -0.1781
   85POPC  H14B11267   1.672   5.490   1.897  0.7837 -1.8127  1.3195
   85POPC  H14C11268   1.645   5.657   1.924  0.2332  0.5504  1.0330
   85POPC   C1511269   1.484   5.496   2.069  0.4921 -0.2134 -0.6890
   85POPC  H15A11270   1.486   5.417   1.996 -0.9382  0.3564 -1.3672
   85POPC  H15B11271   1.423   5.574   2.027  1.3041 -0.3587 -2.2197
   85POPC  H15C11272   1.446   5.463   2.165 -0.2155  1.3095 -0.4203
   85POPC   C1111273   1.681   5.378   2.300 -0.0669  0.1244  0.2797
   85POPC  H11A11274   1.729   5.279   2.309 -0.4929 -0.3121 -1.7826
   85POPC  H11B11275   1.572   5.356   2.306  0.4215 -2.6270  0.2393
   85POPC     P11276   1.867   5.500   2.448  0.1818  0.5818 -0.3628
   85POPC   O1311277   1.863   5.612   2.548  0.3724  0.2048  0.5317
   85POPC   O1411278   1.950   5.518   2.326 -0.8572 -0.4270  0.0433
   85POPC   O1211279   1.722   5.469   2.406  0.6795  0.0311  0.1560
   85POPC   O1111280   1.923   5.374   2.519  0.4891  0.0204 -0.2882
   85POPC    C111281   1.849   5.274   2.590 -0.3038  0.2721 -0.2832
   85POPC    HA11282   1.903   5.178   2.604  0.5347  0.5938 -1.2427
   85POPC    HB11283   1.750   5.262   2.540  0.0544  2.8960 -1.8083
   85POPC    C211284   1.808   5.323   2.729 -0.0297 -0.0640 -0.2783
   85POPC    HS11285   1.761   5.421   2.709  1.3766  1.6836  3.8830
   85POPC   O2111286   1.934   5.327   2.799  0.5577  0.4551 -0.2333
   85POPC   C2111287   1.945   5.446   2.873 -0.7754  0.0030  0.7693
   85POPC   O2211288   1.875   5.542   2.860  0.3979  0.7999  0.2167
   85POPC   C2211289   2.061   5.435   2.961 -0.4458 -0.4441  0.1709
   85POPC   H2R11290   2.135   5.374   2.904 -1.9952 -0.4724 -1.9297
   85POPC   H2S11291   2.024   5.378   3.049 -0.6307 -1.3636 -0.4908
   85POPC    C311292   1.703   5.228   2.795  0.1424  0.3620  0.4609
   85POPC    HX11293   1.759   5.132   2.796  1.5273  1.1263 -0.5733
   85POPC    HY11294   1.615   5.227   2.727 -0.1400  2.4911  0.7194
   85POPC   O3111295   1.655   5.279   2.928 -0.1318  0.4275  0.4615
   85POPC   C3111296   1.708   5.233   3.035 -0.0334  0.5659  0.0594
   85POPC   O3211297   1.796   5.149   3.034  0.4995  0.4366 -0.4308
   85POPC   C3211298   1.652   5.302   3.165  0.4055 -0.6337  0.6060
   85POPC   H2X11299   1.570   5.241   3.208 -3.4024  3.3087 -0.3416
   85POPC   H2Y11300   1.607   5.397   3.130  2.5685  0.8798  1.7368
   85POPC   C2311301   2.109   5.576   3.004  0.3015 -0.1728  1.2038
   85POPC   H3R11302   2.031   5.643   3.046  0.2015  0.9664 -0.6869
   85POPC   H3S11303   2.150   5.631   2.917 -1.8416  1.5938  1.2287
   85POPC   C2411304   2.214   5.576   3.114 -0.6137 -0.0497  0.6383
   85POPC   H4R11305   2.304   5.514   3.095 -0.7654  0.0070 -0.3336
   85POPC   H4S11306   2.158   5.538   3.202 -0.4597 -0.6683  0.4707
   85POPC   C2511307   2.252   5.720   3.160  0.3938 -0.4185  0.2325
   85POPC   H5R11308   2.159   5.776   3.140 -0.8355 -2.4562 -0.0128
   85POPC   H5S11309   2.340   5.751   3.098  0.3693 -0.7816  0.0094
   85POPC   C2611310   2.293   5.718   3.309  0.4446  0.1482  0.8318
   85POPC   H6R11311   2.387   5.659   3.312  0.4869  0.1797  0.2394
   85POPC   H6S11312   2.212   5.661   3.359  1.4077 -3.8622 -1.8020
   85POPC   C2711313   2.327   5.856   3.372 -0.1373 -0.4524  0.1770
   85POPC   H7R11314   2.390   5.904   3.294 -0.6463  0.2123  0.1669
   85POPC   H7S11315   2.394   5.833   3.458  0.0800 -0.2928  0.0513
   85POPC   C2811316   2.210   5.939   3.424  0.4203  0.1061  0.5082
   85POPC   H8R11317   2.143   5.960   3.338  1.8409 -0.1183 -0.6783
   85POPC   H8S11318   2.248   6.035   3.465 -2.0247  1.6729 -0.6845
   85POPC   C2911319   2.136   5.856   3.530  0.7371  0.0385 -0.4506
   85POPC   H9111320   2.059   5.791   3.488 -0.3628  0.9326  0.1328
   85POPC  C21011321   2.148   5.860   3.667  0.1639 -0.1483  0.5536
   85POPC  H10111322   2.077   5.800   3.726  0.1078 -0.3305  0.3034
   85POPC  C21111323   2.236   5.951   3.743  0.1812  0.0817  0.4765
   85POPC  H11R11324   2.172   6.029   3.789  1.7263  0.9535  1.2215
   85POPC  H11S11325   2.302   6.004   3.671 -1.0200  1.0495  0.0432
   85POPC  C21211326   2.316   5.883   3.851 -0.2637  0.0405 -0.0210
   85POPC  H12R11327   2.368   5.791   3.817 -1.1876 -0.6835  0.5091
   85POPC  H12S11328   2.241   5.843   3.921 -0.8647  0.3753 -0.4641
   85POPC  C21311329   2.421   5.983   3.911  0.1681  0.0203 -0.5616
   85POPC  H13R11330   2.400   6.091   3.891 -2.3920  0.0762  1.7507
   85POPC  H13S11331   2.518   5.955   3.865 -0.4368 -1.4728 -0.9605
   85POPC  C21411332   2.415   5.968   4.064  0.4218 -0.1374 -0.2777
   85POPC  H14R11333   2.444   5.865   4.095  1.9255  0.0795 -0.8551
   85POPC  H14S11334   2.307   5.978   4.087  0.4735 -3.2338  1.9302
   85POPC  C21511335   2.505   6.054   4.157  0.5516  0.2879  0.0822
   85POPC  H15R11336   2.485   6.035   4.265 -1.1760  0.3175 -0.2091
   85POPC  H15S11337   2.476   6.160   4.144  1.5405  0.3038 -2.4661
   85POPC  C21611338   2.657   6.035   4.128  0.6782  0.1836 -0.1180
   85POPC  H16R11339   2.673   6.048   4.019  1.0835  0.3970 -0.0330
   85POPC  H16S11340   2.682   5.933   4.163  0.9842 -0.5916 -2.4626
   85POPC  C21711341   2.743   6.146   4.188 -0.6494  0.0704 -0.2733
   85POPC  H17R11342   2.694   6.246   4.183  0.0075  0.4629  0.8171
   85POPC  H17S11343   2.837   6.159   4.130  0.0982 -2.0582  0.3693
   85POPC  C21811344   2.774   6.120   4.335 -0.0488 -0.0394  0.0659
   85POPC  H18R11345   2.682   6.102   4.395  1.0476 -0.3880  1.7027
   85POPC  H18S11346   2.836   6.199   4.385 -0.9880  1.1716 -0.6304
   85POPC  H18T11347   2.836   6.028   4.343  1.3869  0.5793 -2.7576
   85POPC   C3311348   1.766   5.336   3.259  0.0298  0.4218  0.3682
   85POPC   H3X11349   1.861   5.284   3.236  0.2502 -0.4607  2.9742
   85POPC   H3Y11350   1.724   5.316   3.360 -0.0122  1.8457  0.6460
   85POPC   C3411351   1.797   5.483   3.266 -0.1062 -0.4105  0.3194
   85POPC   H4X11352   1.711   5.551   3.286 -1.1740 -1.7305  0.3443
   85POPC   H4Y11353   1.833   5.511   3.164 -0.4173  0.4347  0.4278
   85POPC   C3511354   1.905   5.538   3.367 -0.4840  0.0083  0.4824
   85POPC   H5X11355   1.916   5.643   3.332  0.3937  0.5191  2.2250
   85POPC   H5Y11356   1.999   5.483   3.348 -1.7533 -1.5397 -1.9153
   85POPC   C3611357   1.865   5.555   3.514 -0.7746 -0.5898 -0.3729
   85POPC   H6X11358   1.956   5.583   3.572 -0.2244 -1.6081 -0.7183
   85POPC   H6Y11359   1.831   5.455   3.546 -3.2983  0.7910  1.5859
   85POPC   C3711360   1.758   5.664   3.529  0.0521  0.3076 -0.5255
   85POPC   H7X11361   1.658   5.625   3.500 -1.0673  1.9720  0.8604
   85POPC   H7Y11362   1.781   5.730   3.443  0.6935 -0.0848 -0.6572
   85POPC   C3811363   1.762   5.741   3.662 -0.5845  0.0358 -0.1247
   85POPC   H8X11364   1.678   5.813   3.666 -0.5901 -0.0073  1.0746
   85POPC   H8Y11365   1.848   5.811   3.652 -1.2894  0.8974 -0.2524
   85POPC   C3911366   1.770   5.653   3.784  0.4372 -0.5236 -0.3228
   85POPC   H9X11367   1.857   5.585   3.770 -0.6083 -1.6176 -1.9428
   85POPC   H9Y11368   1.679   5.590   3.781 -0.7499  1.1485 -0.5037
   85POPC  C31011369   1.789   5.726   3.911 -0.4580 -0.6788 -0.3591
   85POPC  H10X11370   1.706   5.797   3.932  0.1372  0.2536 -1.0486
   85POPC  H10Y11371   1.880   5.788   3.893  0.4353 -2.0021 -0.5036
   85POPC  C31111372   1.810   5.644   4.031 -0.1238  0.4681  0.5795
   85POPC  H11X11373   1.888   5.568   4.010 -0.3678  0.3171  0.2035
   85POPC  H11Y11374   1.714   5.591   4.048  0.3976 -0.7930 -0.2825
   85POPC  C31211375   1.864   5.728   4.155 -0.0687 -0.5893  0.5879
   85POPC  H12X11376   1.771   5.766   4.204 -0.2354 -0.6940  0.3495
   85POPC  H12Y11377   1.928   5.810   4.116 -1.5925 -0.5506 -2.0626
   85POPC  C31311378   1.938   5.639   4.255  0.3063 -0.5878  0.5189
   85POPC  H13X11379   2.035   5.613   4.207 -0.0382  1.3237 -1.3877
   85POPC  H13Y11380   1.873   5.555   4.286 -1.2842  1.1997  2.4019
   85POPC  C31411381   1.952   5.708   4.389  0.3129  0.6197 -1.1903
   85POPC  H14X11382   1.847   5.724   4.420 -0.2116 -4.0830  0.3348
   85POPC  H14Y11383   2.006   5.803   4.368  1.6047  0.0677 -0.5014
   85POPC  C31511384   2.023   5.630   4.500 -0.4827  0.3011  0.2830
   85POPC  H15X11385   1.958   5.549   4.541 -0.2052  0.7912  1.7475
   85POPC  H15Y11386   2.039   5.700   4.584  0.6932  0.1282  0.2160
   85POPC  C31611387   2.152   5.563   4.468 -0.1133 -0.0797  0.1710
   85POPC  H16X11388   2.219   5.618   4.399 -2.0598  0.5076 -1.3383
   85POPC  H16Y11389   2.130   5.466   4.418 -2.0411 -0.0493  0.9016
   85POPC  H16Z11390   2.206   5.540   4.562 -1.0233  1.5230  1.1323
   86POPC     N11391   0.792   3.701   2.160  0.7692 -0.0904  0.4036
   86POPC   C1211392   0.916   3.697   2.259 -0.0463  0.5647 -0.4717
   86POPC  H12A11393   0.996   3.728   2.194  1.7283  0.5794  1.6197
   86POPC  H12B11394   0.939   3.596   2.291  2.4071  1.4095  0.6958
   86POPC   C1311395   0.669   3.703   2.237 -0.3915 -0.5020 -0.4053
   86POPC  H13A11396   0.590   3.738   2.173 -0.1396  0.7696 -0.0533
   86POPC  H13B11397   0.645   3.610   2.286 -0.0214 -0.6497 -0.5038
   86POPC  H13C11398   0.675   3.779   2.314  1.2318  0.0307 -1.0125
   86POPC   C1411399   0.801   3.832   2.090 -0.4731 -0.1823  0.2851
   86POPC  H14A11400   0.877   3.828   2.014 -0.2356  2.0980  0.3228
   86POPC  H14B11401   0.711   3.865   2.039 -0.3140 -1.3144 -0.7523
   86POPC  H14C11402   0.827   3.909   2.162 -1.0827 -0.0678  0.3929
   86POPC   C1511403   0.800   3.588   2.062  0.6826 -0.1465  0.4886
   86POPC  H15A11404   0.710   3.597   2.003  1.2524  1.2379 -0.2144
   86POPC  H15B11405   0.793   3.492   2.112  0.8203  0.5818  1.9557
   86POPC  H15C11406   0.890   3.594   2.003 -0.4234  1.3353 -1.1233
   86POPC   C1111407   0.916   3.774   2.395  0.7169 -0.2169  0.0591
   86POPC  H11A11408   1.019   3.770   2.437  1.6831 -0.5593 -2.1785
   86POPC  H11B11409   0.848   3.724   2.467  1.3761 -1.5873 -0.2328
   86POPC     P11410   0.987   4.028   2.393  0.2858 -0.0590  0.1767
   86POPC   O1311411   0.918   4.156   2.387 -0.6639 -0.2069  0.4089
   86POPC   O1411412   1.089   4.014   2.289  0.9159  0.7445  0.6940
   86POPC   O1211413   0.883   3.909   2.378 -0.0278 -0.5691  0.3064
   86POPC   O1111414   1.038   4.009   2.544 -0.2662  0.4704 -0.4414
   86POPC    C111415   0.943   4.037   2.651  0.3555 -0.0385  0.0481
   86POPC    HA11416   0.892   3.946   2.689 -0.9746  0.1461 -1.2343
   86POPC    HB11417   0.866   4.114   2.630 -0.7598 -0.7426  1.3986
   86POPC    C211418   1.017   4.104   2.776  0.7919  0.5981 -0.2794
   86POPC    HS11419   1.078   4.191   2.742 -1.3490  2.6730  0.8149
   86POPC   O2111420   1.096   4.015   2.852 -0.1266 -0.3986  0.2072
   86POPC   C2111421   1.187   4.076   2.934 -0.7032 -0.0283  0.4181
   86POPC   O2211422   1.221   4.196   2.913 -0.1101 -0.2991  0.0157
   86POPC   C2211423   1.224   3.978   3.044  0.0974 -0.1198 -0.1302
   86POPC   H2R11424   1.331   3.952   3.030 -0.0887 -0.1369 -1.8002
   86POPC   H2S11425   1.164   3.885   3.044 -1.1492  0.6563  0.1479
   86POPC    C311426   0.909   4.157   2.876 -0.0557  0.6260  0.6017
   86POPC    HX11427   0.847   4.240   2.835 -0.0561 -0.8215 -2.6791
   86POPC    HY11428   0.968   4.193   2.964  2.8784 -2.2087 -0.0228
   86POPC   O3111429   0.824   4.049   2.918 -0.2879  0.3262  0.2908
   86POPC   C3111430   0.699   4.032   2.877 -0.2894  0.2329  0.3183
   86POPC   O3211431   0.632   4.110   2.814 -0.0893 -0.2359  0.3749
   86POPC   C3211432   0.648   3.904   2.933 -0.4198 -0.1080  0.3246
   86POPC   H2X11433   0.732   3.831   2.931  0.2697  0.5208  2.7940
   86POPC   H2Y11434   0.574   3.856   2.867  0.6624  0.3533 -1.2861
   86POPC   C2311435   1.224   4.050   3.181  0.2161  0.1861  0.8184
   86POPC   H3R11436   1.132   4.112   3.183  0.4045  0.5843 -1.1579
   86POPC   H3S11437   1.304   4.127   3.193  0.0381  0.3665  0.8492
   86POPC   C2411438   1.258   3.964   3.302  0.4478  0.1752  0.1228
   86POPC   H4R11439   1.347   3.899   3.286  0.9321  1.1515 -1.3313
   86POPC   H4S11440   1.169   3.902   3.328 -0.2273 -0.2985 -2.9147
   86POPC   C2511441   1.291   4.047   3.425 -0.0592  0.5301  0.1101
   86POPC   H5R11442   1.228   4.138   3.434  1.5279  1.6337  0.4674
   86POPC   H5S11443   1.395   4.084   3.409 -0.4615  2.0964  0.8545
   86POPC   C2611444   1.292   3.975   3.558  0.0449 -0.1204 -0.5624
   86POPC   H6R11445   1.370   3.896   3.549  0.9638  0.8219 -1.1422
   86POPC   H6S11446   1.201   3.915   3.579 -0.5611  0.6912 -0.8344
   86POPC   C2711447   1.319   4.070   3.680  0.5883 -0.7417  0.3080
   86POPC   H7R11448   1.336   3.999   3.764  1.3915 -0.5947  0.2735
   86POPC   H7S11449   1.222   4.122   3.699  0.9944 -0.1320  0.7495
   86POPC   C2811450   1.453   4.151   3.677  0.2975  0.3900  0.1770
   86POPC   H8R11451   1.468   4.209   3.584  1.9002 -0.3714 -0.0648
   86POPC   H8S11452   1.532   4.073   3.677 -1.8733 -1.9407 -0.0576
   86POPC   C2911453   1.457   4.247   3.795 -0.5422  0.6968  0.2420
   86POPC   H9111454   1.453   4.350   3.757  2.4379  1.0536  0.7002
   86POPC  C21011455   1.470   4.224   3.929  0.2681  0.0500  0.7809
   86POPC  H10111456   1.487   4.309   3.998  0.1683 -0.0616  0.9438
   86POPC  C21111457   1.496   4.086   3.991  0.2560  0.4915  0.3561
   86POPC  H11R11458   1.600   4.101   4.029 -0.2438  0.1602  1.9245
   86POPC  H11S11459   1.488   4.009   3.911 -0.7182  1.6285 -0.6789
   86POPC  C21211460   1.396   4.041   4.095  0.3510  0.4190 -0.0771
   86POPC  H12R11461   1.412   3.936   4.127 -3.5295 -0.4671 -0.4353
   86POPC  H12S11462   1.296   4.030   4.047  0.4711  0.7601 -0.4098
   86POPC  C21311463   1.380   4.125   4.217 -0.2069 -0.4494  0.0043
   86POPC  H13R11464   1.364   4.231   4.186 -0.2022 -0.5453 -0.3185
   86POPC  H13S11465   1.477   4.124   4.273 -0.8481  0.0376  1.1792
   86POPC  C21411466   1.262   4.088   4.294 -0.1815 -0.4374 -0.3307
   86POPC  H14R11467   1.262   3.977   4.304  1.0554 -0.4029  0.2153
   86POPC  H14S11468   1.171   4.119   4.238 -1.3837 -2.3274  0.4462
   86POPC  C21511469   1.271   4.134   4.442  1.0453  0.0670  0.8020
   86POPC  H15R11470   1.175   4.116   4.494  2.6406 -1.9592  3.2765
   86POPC  H15S11471   1.281   4.244   4.455 -2.3738  0.6826 -0.7517
   86POPC  C21611472   1.380   4.069   4.524  0.2896 -0.2226 -0.0578
   86POPC  H16R11473   1.478   4.069   4.471  0.1267 -0.7351 -0.3615
   86POPC  H16S11474   1.364   3.961   4.542 -0.9433 -0.1464 -0.5930
   86POPC  C21711475   1.400   4.134   4.669  0.1745 -0.6202 -0.0804
   86POPC  H17R11476   1.318   4.098   4.735  2.2787 -1.3092  2.2875
   86POPC  H17S11477   1.394   4.244   4.657  0.1912 -0.6107 -0.0000
   86POPC  C21811478   1.533   4.097   4.732  0.3295  0.7154  0.5110
   86POPC  H18R11479   1.622   4.119   4.668 -0.1924 -2.6340 -1.6228
   86POPC  H18S11480   1.542   3.987   4.745  0.7288  0.7181  0.2777
   86POPC  H18T11481   1.543   4.152   4.828  0.9711  1.3540  0.0958
   86POPC   C3311482   0.592   3.914   3.074  0.1583 -0.5123  0.0757
   86POPC   H3X11483   0.545   4.012   3.096  0.8910 -0.5571  2.0679
   86POPC   H3Y11484   0.682   3.909   3.140  1.1407 -0.3162 -1.2099
   86POPC   C3411485   0.482   3.809   3.110  0.1940 -0.2266  0.2127
   86POPC   H4X11486   0.542   3.716   3.105  0.6929  0.1456 -1.5192
   86POPC   H4Y11487   0.404   3.797   3.031  1.0723  0.6504 -0.8290
   86POPC   C3511488   0.413   3.828   3.244  0.2779 -0.1396 -0.6139
   86POPC   H5X11489   0.490   3.820   3.324 -2.1103 -0.3660  1.8199
   86POPC   H5Y11490   0.348   3.739   3.259  0.2268  0.2285  1.8639
   86POPC   C3611491   0.328   3.960   3.259 -0.6539  0.4498  0.0252
   86POPC   H6X11492   0.254   3.967   3.176  0.4421  0.6200 -0.9524
   86POPC   H6Y11493   0.398   4.046   3.253 -0.2729  0.1519  0.1629
   86POPC   C3711494   0.249   3.968   3.388 -0.3311 -0.7696  0.1059
   86POPC   H7X11495   0.317   3.994   3.471  0.2849  0.6598 -0.8100
   86POPC   H7Y11496   0.204   3.867   3.398 -0.8359 -0.6748 -0.9899
   86POPC   C3811497   0.140   4.074   3.379 -0.0497  0.0941 -0.2962
   86POPC   H8X11498   0.074   4.048   3.294  0.0595 -0.2893 -0.2667
   86POPC   H8Y11499   0.177   4.178   3.369  0.1458  0.1120  0.5215
   86POPC   C3911500   0.059   4.076   3.505 -0.0841  0.6892  0.1946
   86POPC   H9X11501   0.114   4.097   3.599  0.6752 -1.8011  0.3822
   86POPC   H9Y11502   0.014   3.975   3.513  1.4243 -0.0365 -0.2198
   86POPC  C31011503  -0.055   4.184   3.476 -0.1285  0.0636 -0.4555
   86POPC  H10X11504  -0.095   4.163   3.375 -2.1946  0.6546  0.1910
   86POPC  H10Y11505  -0.020   4.289   3.474 -2.8055  1.0435 -0.1585
   86POPC  C31111506  -0.172   4.168   3.575 -0.0526  0.2941 -0.0773
   86POPC  H11X11507  -0.211   4.066   3.554 -0.6668  0.1559  1.6456
   86POPC  H11Y11508  -0.247   4.242   3.540  1.2593  1.0227 -1.4819
   86POPC  C31211509  -0.147   4.184   3.723  0.2640  0.2078  0.6646
   86POPC  H12X11510  -0.094   4.091   3.754  1.7326  0.1060 -1.8565
   86POPC  H12Y11511  -0.245   4.184   3.775  0.2044 -0.8035  0.5857
   86POPC  C31311512  -0.069   4.305   3.772 -0.4355 -0.2200 -0.4929
   86POPC  H13X11513  -0.112   4.392   3.718 -0.2800 -0.1887 -0.5670
   86POPC  H13Y11514   0.031   4.309   3.723 -1.4427 -1.8744 -2.8895
   86POPC  C31411515  -0.058   4.320   3.927 -0.0715  0.4486 -0.3188
   86POPC  H14X11516   0.026   4.257   3.962 -0.0133  0.9028  0.3670
   86POPC  H14Y11517  -0.140   4.263   3.975  0.9575 -1.8638 -1.1737
   86POPC  C31511518  -0.043   4.459   3.985 -0.1611  0.7989 -0.7421
   86POPC  H15X11519  -0.134   4.516   3.957  1.0273  2.8009 -0.6521
   86POPC  H15Y11520   0.040   4.510   3.932  1.2889 -0.0967  0.5569
   86POPC  C31611521  -0.024   4.474   4.133 -0.5099 -0.1776 -0.1199
   86POPC  H16X11522   0.074   4.435   4.169  0.2256  2.0110  0.3850
   86POPC  H16Y11523  -0.105   4.420   4.187  0.5752 -1.7159  0.0429
   86POPC  H16Z11524  -0.027   4.579   4.170 -1.5615  0.6592 -2.4043
   87POPC     N11525   4.893   1.914   1.839  0.0585  0.1686  0.1551
   87POPC   C1211526   4.891   1.983   1.975 -0.4593  0.2104 -1.0079
   87POPC  H12A11527   4.788   1.996   2.005 -0.5231 -3.0786  0.6750
   87POPC  H12B11528   4.955   2.070   1.971  2.9207 -2.0881 -1.3792
   87POPC   C1311529   4.804   1.976   1.743 -0.1408  0.3892  0.6625
   87POPC  H13A11530   4.841   2.076   1.725  0.5922  0.0593  0.2832
   87POPC  H13B11531   4.798   1.921   1.650 -2.1139  0.7453  0.5302
   87POPC  H13C11532   4.709   1.984   1.793 -0.1066 -1.0349  0.9796
   87POPC   C1411533   5.036   1.919   1.776 -0.5612  0.7786  0.0093
   87POPC  H14A11534   5.084   2.016   1.779 -1.1748  1.0845  0.2957
   87POPC  H14B11535   5.102   1.859   1.838 -1.0214  1.6444  1.3935
   87POPC  H14C11536   5.039   1.881   1.675 -4.3238  0.6120 -0.1594
   87POPC   C1511537   4.856   1.763   1.850 -0.7542 -0.8155 -0.9936
   87POPC  H15A11538   4.764   1.753   1.904 -0.3576  1.2684  0.1631
   87POPC  H15B11539   4.935   1.707   1.897  0.1814  2.0421  1.1558
   87POPC  H15C11540   4.849   1.729   1.747  2.6640 -3.5517 -0.5235
   87POPC   C1111541   4.957   1.889   2.078 -1.0858 -0.4035  0.2147
   87POPC  H11A11542   4.903   1.792   2.080  0.9791 -1.6642 -1.4482
   87POPC  H11B11543   4.935   1.925   2.181 -1.7843  1.3500 -0.5171
   87POPC     P11544   5.166   1.729   2.106  0.3228 -0.0462 -0.0003
   87POPC   O1311545   5.316   1.729   2.097  0.4888  0.0483 -0.0105
   87POPC   O1411546   5.102   1.619   2.038 -0.1177 -0.2831  0.2753
   87POPC   O1211547   5.101   1.868   2.071 -0.1358 -0.0146 -0.1640
   87POPC   O1111548   5.127   1.708   2.263 -0.4425  0.5602  0.5543
   87POPC    C111549   5.171   1.817   2.341 -0.5361 -0.4998  0.1008
   87POPC    HA11550   5.119   1.913   2.322 -1.2834 -0.3088  2.6355
   87POPC    HB11551   5.282   1.827   2.332 -0.4783 -1.2818 -0.0674
   87POPC    C211552   5.161   1.785   2.496  0.4004  0.1029  0.3319
   87POPC    HS11553   5.200   1.682   2.511 -0.6747 -0.7812 -2.3635
   87POPC   O2111554   5.026   1.795   2.532  0.1113 -0.0701  0.2140
   87POPC   C2111555   4.960   1.685   2.519 -0.3645  0.4787 -0.3758
   87POPC   O2211556   5.003   1.581   2.472  0.1845 -0.0121 -0.4419
   87POPC   C2211557   4.819   1.706   2.562  0.6321 -0.4531 -0.6925
   87POPC   H2R11558   4.788   1.601   2.578  1.3017 -0.2953  2.2673
   87POPC   H2S11559   4.756   1.756   2.484  1.7913 -0.5618 -1.7148
   87POPC    C311560   5.246   1.881   2.576  0.3834  0.4167 -0.0560
   87POPC    HX11561   5.221   1.981   2.536  0.0513 -0.4144 -2.0434
   87POPC    HY11562   5.349   1.863   2.538  0.6317 -0.1256  0.8420
   87POPC   O3111563   5.227   1.864   2.718  0.5527  0.1782 -0.3975
   87POPC   C3111564   5.305   1.765   2.780 -0.3497 -0.6935 -0.0164
   87POPC   O3211565   5.370   1.679   2.726  0.1337 -0.4163  0.0905
   87POPC   C3211566   5.282   1.777   2.928 -0.4521  0.2712 -0.1168
   87POPC   H2X11567   5.171   1.788   2.928 -0.2513  3.0667  0.1702
   87POPC   H2Y11568   5.341   1.859   2.975 -0.2537 -0.5669  1.1592
   87POPC   C2311569   4.813   1.771   2.699 -0.4511 -0.6277  0.1669
   87POPC   H3R11570   4.708   1.780   2.735 -1.0962 -3.2449 -0.8400
   87POPC   H3S11571   4.849   1.876   2.694 -0.1249 -0.7706 -0.6947
   87POPC   C2411572   4.893   1.693   2.804  0.2918 -0.0962 -0.5134
   87POPC   H4R11573   4.995   1.707   2.762 -0.5454 -1.2722 -3.1202
   87POPC   H4S11574   4.865   1.586   2.805  1.7422 -0.5458 -2.0705
   87POPC   C2511575   4.884   1.763   2.942 -0.3186  0.3218 -0.1434
   87POPC   H5R11576   4.884   1.874   2.935  1.5817  0.4282  0.9018
   87POPC   H5S11577   4.982   1.739   2.988 -1.0851  0.2576  1.5419
   87POPC   C2611578   4.778   1.719   3.036  0.2808 -0.4575 -0.4218
   87POPC   H6R11579   4.782   1.608   3.044  1.7755 -0.3111  1.5276
   87POPC   H6S11580   4.680   1.752   2.995  0.0378  0.4825  0.8364
   87POPC   C2711581   4.786   1.784   3.180 -0.3787  0.6359 -0.5512
   87POPC   H7R11582   4.777   1.895   3.181 -1.5695  0.5451 -0.1682
   87POPC   H7S11583   4.883   1.764   3.232 -0.6943  1.3870  0.3646
   87POPC   C2811584   4.685   1.707   3.264 -0.3403  0.4760  0.0377
   87POPC   H8R11585   4.707   1.598   3.263  1.1956  0.7361  1.2300
   87POPC   H8S11586   4.583   1.719   3.221  0.2574  1.1379 -1.2631
   87POPC   C2911587   4.675   1.757   3.409  0.0923 -0.6469  0.1590
   87POPC   H9111588   4.630   1.856   3.424  0.0297 -0.6340 -0.1156
   87POPC  C21011589   4.741   1.702   3.510  0.8206 -0.7804  0.2134
   87POPC  H10111590   4.729   1.732   3.615 -0.2798 -1.3625  0.2737
   87POPC  C21111591   4.841   1.590   3.495  0.0032  0.1616 -0.1026
   87POPC  H11R11592   4.941   1.620   3.533  0.5515  2.3104 -2.9055
   87POPC  H11S11593   4.861   1.557   3.391 -0.6199 -0.0911 -0.1456
   87POPC  C21211594   4.779   1.471   3.574 -0.0025 -0.6065 -0.8111
   87POPC  H12R11595   4.786   1.489   3.683 -1.4337 -3.0262 -0.2362
   87POPC  H12S11596   4.847   1.385   3.552  1.7610  0.8174 -1.1401
   87POPC  C21311597   4.638   1.424   3.530  0.5149  0.4294 -0.3732
   87POPC  H13R11598   4.650   1.367   3.435 -0.8825 -1.4881  0.5269
   87POPC  H13S11599   4.568   1.510   3.525  0.5404  0.4747  0.0682
   87POPC  C21411600   4.582   1.324   3.631  0.0291 -0.6408 -0.3116
   87POPC  H14R11601   4.588   1.373   3.731 -0.3144  1.1516 -1.1402
   87POPC  H14S11602   4.652   1.238   3.631  0.0895 -0.5994  0.4818
   87POPC  C21511603   4.438   1.286   3.602  0.2641  0.7198  0.7141
   87POPC  H15R11604   4.423   1.234   3.505  0.4322  0.3509  0.8819
   87POPC  H15S11605   4.376   1.378   3.591 -0.8417 -0.1875 -1.1112
   87POPC  C21611606   4.382   1.188   3.707 -0.7267 -0.8510  0.0418
   87POPC  H16R11607   4.387   1.235   3.807  0.2532 -0.6930 -0.0696
   87POPC  H16S11608   4.452   1.103   3.726  1.6909  0.9618 -0.3037
   87POPC  C21711609   4.236   1.152   3.677 -0.3081 -0.4886  0.2252
   87POPC  H17R11610   4.203   1.102   3.770  0.9702  0.3157  1.1392
   87POPC  H17S11611   4.246   1.079   3.594  2.2518 -1.9066  1.6442
   87POPC  C21811612   4.140   1.269   3.650 -0.1685  0.3912  0.0275
   87POPC  H18R11613   4.138   1.300   3.543 -0.4872 -0.1617 -0.1313
   87POPC  H18S11614   4.151   1.352   3.723 -0.4032 -0.1681  0.7044
   87POPC  H18T11615   4.036   1.236   3.670 -1.1840  2.3270 -1.6537
   87POPC   C3311616   5.326   1.651   3.003 -0.4807  0.8659  0.3589
   87POPC   H3X11617   5.408   1.595   2.953 -1.1274 -2.0725  2.2821
   87POPC   H3Y11618   5.243   1.577   2.997  0.1811 -0.0226  1.5824
   87POPC   C3411619   5.386   1.671   3.148 -0.1805  0.0654  0.3522
   87POPC   H4X11620   5.445   1.764   3.167 -2.0535  1.1363  1.2541
   87POPC   H4Y11621   5.452   1.583   3.161  1.5297  1.1996 -0.2172
   87POPC   C3511622   5.280   1.654   3.258  0.3786 -0.0697  0.2828
   87POPC   H5X11623   5.236   1.552   3.267  2.3811 -1.0006  0.1794
   87POPC   H5Y11624   5.199   1.722   3.224  0.4217 -0.2154 -0.1220
   87POPC   C3611625   5.333   1.708   3.393  0.0341 -0.2271  0.1892
   87POPC   H6X11626   5.250   1.754   3.451 -1.0160 -2.0503  0.2022
   87POPC   H6Y11627   5.395   1.799   3.379 -1.0518  0.3463 -1.1593
   87POPC   C3711628   5.408   1.600   3.468 -0.9428  0.0410 -0.3246
   87POPC   H7X11629   5.492   1.555   3.411  1.4930  1.8628  1.6296
   87POPC   H7Y11630   5.337   1.516   3.480  0.7156 -1.5672 -1.2612
   87POPC   C3811631   5.472   1.656   3.600 -0.0004 -0.3467 -0.2060
   87POPC   H8X11632   5.396   1.697   3.669  2.5877 -0.4658  2.9768
   87POPC   H8Y11633   5.554   1.730   3.587 -0.3167  0.7723  3.1968
   87POPC   C3911634   5.529   1.541   3.692 -0.4796  0.4271 -0.0875
   87POPC   H9X11635   5.596   1.479   3.628  0.9974  0.1766  1.6105
   87POPC   H9Y11636   5.444   1.485   3.735 -0.5758  0.7809  0.1903
   87POPC  C31011637   5.605   1.595   3.810  0.1187 -0.0682  0.0990
   87POPC  H10X11638   5.579   1.700   3.835 -0.0833  0.3284 -1.6604
   87POPC  H10Y11639   5.709   1.602   3.772 -0.3901 -0.4413 -1.4447
   87POPC  C31111640   5.607   1.501   3.936 -0.3255  0.1409  0.3189
   87POPC  H11X11641   5.645   1.400   3.908  0.8102  0.6296  0.0401
   87POPC  H11Y11642   5.502   1.489   3.970 -0.2937  1.6107  0.9938
   87POPC  C31211643   5.694   1.554   4.049 -0.4377 -0.1995  0.1727
   87POPC  H12X11644   5.663   1.519   4.150 -1.6141  0.0781 -0.0769
   87POPC  H12Y11645   5.672   1.660   4.071  0.5024  0.3276 -1.2830
   87POPC  C31311646   5.840   1.528   4.025  0.2454 -0.0734  0.2823
   87POPC  H13X11647   5.877   1.561   3.926  1.3085 -2.2952 -0.0988
   87POPC  H13Y11648   5.868   1.421   4.027  2.1703  0.3854 -0.3378
   87POPC  C31411649   5.936   1.603   4.121  1.7051 -0.1163 -0.5074
   87POPC  H14X11650   5.909   1.580   4.226 -1.7415 -1.2679 -1.5370
   87POPC  H14Y11651   5.924   1.714   4.119  1.2857 -0.1007  1.2853
   87POPC  C31511652   6.083   1.583   4.104 -0.3666  1.1627  0.4484
   87POPC  H15X11653   6.108   1.622   4.003 -0.8920 -2.8278 -1.4335
   87POPC  H15Y11654   6.092   1.472   4.108 -1.4119  1.1110  2.2227
   87POPC  C31611655   6.168   1.656   4.208 -0.2196 -0.5456 -0.1696
   87POPC  H16X11656   6.151   1.612   4.308 -2.3366 -0.6721 -0.5486
   87POPC  H16Y11657   6.145   1.765   4.210  0.1230 -0.4771  0.2368
   87POPC  H16Z11658   6.275   1.639   4.183 -0.0048  1.8614 -1.1286
   88POPC     N11659   2.213   2.049   2.270  0.2325  0.0109  0.2384
   88POPC   C1211660   2.112   2.001   2.365 -0.0528  0.2086 -0.7205
   88POPC  H12A11661   2.035   1.941   2.318  1.5922 -2.1952 -0.5397
   88POPC  H12B11662   2.062   2.092   2.394 -1.0832  0.1109 -2.1255
   88POPC   C1311663   2.312   1.949   2.225  0.7984 -0.3790  0.4852
   88POPC  H13A11664   2.373   1.919   2.309  0.8854 -1.6121  0.0014
   88POPC  H13B11665   2.257   1.863   2.191 -1.5446  1.0885  0.3101
   88POPC  H13C11666   2.367   1.997   2.146  1.3983 -0.3311  0.9239
   88POPC   C1411667   2.144   2.098   2.141 -0.7596 -0.9428 -0.7609
   88POPC  H14A11668   2.060   2.035   2.115 -0.9929 -1.3739  0.8913
   88POPC  H14B11669   2.095   2.191   2.163  2.2372  0.4184  0.8585
   88POPC  H14C11670   2.210   2.115   2.057  1.9141 -2.0615  0.9543
   88POPC   C1511671   2.276   2.170   2.324 -0.7098  0.4968 -0.1532
   88POPC  H15A11672   2.363   2.192   2.264  0.7029  0.7157  1.8628
   88POPC  H15B11673   2.300   2.157   2.429 -0.7296  3.5127  0.3060
   88POPC  H15C11674   2.208   2.254   2.321 -0.2356  0.8673 -0.5702
   88POPC   C1111675   2.160   1.933   2.492  0.7715 -0.1338  0.3333
   88POPC  H11A11676   2.219   1.844   2.460 -0.6551 -1.6431  1.7024
   88POPC  H11B11677   2.081   1.882   2.550 -2.0221  0.0730 -3.0005
   88POPC     P11678   2.193   2.082   2.707  0.6534  0.0862 -0.0733
   88POPC   O1311679   2.143   2.219   2.687  0.3490  0.4449  0.5693
   88POPC   O1411680   2.309   2.075   2.795  0.1091 -0.0479 -0.3073
   88POPC   O1211681   2.244   2.020   2.573 -0.1412  0.2725  0.3359
   88POPC   O1111682   2.086   1.985   2.761  0.0471 -0.0869  0.5459
   88POPC    C111683   2.112   1.847   2.800 -0.8811 -0.1048  0.1191
   88POPC    HA11684   2.214   1.809   2.782 -0.3726  1.7642 -1.2891
   88POPC    HB11685   2.060   1.773   2.735 -1.1467 -0.2997  0.5484
   88POPC    C211686   2.067   1.827   2.948  0.0010 -0.1969  0.6432
   88POPC    HS11687   2.088   1.720   2.970 -2.1280 -0.2833  2.5892
   88POPC   O2111688   1.930   1.866   2.961 -0.0734  0.3429 -0.1173
   88POPC   C2111689   1.848   1.763   2.953 -0.5850 -0.2061 -0.0792
   88POPC   O2211690   1.874   1.644   2.942 -0.5976  0.1121  0.4500
   88POPC   C2211691   1.703   1.817   2.968 -0.8353 -0.2137 -0.1007
   88POPC   H2R11692   1.676   1.846   2.865 -1.1761 -0.4314 -0.0739
   88POPC   H2S11693   1.712   1.907   3.033 -0.0365 -1.4209  1.5595
   88POPC    C311694   2.162   1.903   3.048  0.1873  0.7893  0.2847
   88POPC    HX11695   2.173   2.005   3.007 -0.8030  0.3033 -1.2840
   88POPC    HY11696   2.267   1.868   3.036  0.0327 -0.1334  1.4250
   88POPC   O3111697   2.108   1.930   3.182  0.4503  0.2441  0.3370
   88POPC   C3111698   2.176   1.864   3.269  1.0810  0.3486  0.8924
   88POPC   O3211699   2.256   1.779   3.241  0.3241 -0.0160 -0.4399
   88POPC   C3211700   2.131   1.888   3.413  0.2370  0.3432  0.6964
   88POPC   H2X11701   2.216   1.891   3.485  1.1203 -1.6958 -0.1936
   88POPC   H2Y11702   2.067   1.801   3.439 -0.3128  0.5698  0.1409
   88POPC   C2311703   1.597   1.721   3.033  0.1428  0.0955 -0.9481
   88POPC   H3R11704   1.612   1.620   2.990  0.0730 -0.6645  0.7379
   88POPC   H3S11705   1.496   1.750   2.996  0.1366 -2.7669 -3.6119
   88POPC   C2411706   1.607   1.716   3.192  0.1543  0.0328  0.9256
   88POPC   H4R11707   1.506   1.672   3.204 -0.4899  0.4284 -2.0472
   88POPC   H4S11708   1.618   1.817   3.236 -0.5014  0.3861  0.3049
   88POPC   C2511709   1.711   1.618   3.249  0.2037  0.0626  0.7735
   88POPC   H5R11710   1.713   1.634   3.359  1.0273  0.2752  0.7368
   88POPC   H5S11711   1.810   1.643   3.205 -0.8566  2.6374 -0.3478
   88POPC   C2611712   1.685   1.468   3.226  0.0152 -0.1947 -0.0233
   88POPC   H6R11713   1.665   1.441   3.119 -0.2959  1.4994 -0.4124
   88POPC   H6S11714   1.582   1.451   3.266 -0.3585  1.7182 -0.0972
   88POPC   C2711715   1.783   1.370   3.295  0.5569  0.1769 -0.6491
   88POPC   H7R11716   1.810   1.391   3.401  0.7935  2.0624 -1.0579
   88POPC   H7S11717   1.880   1.388   3.243  0.2216 -0.1363 -1.4041
   88POPC   C2811718   1.738   1.222   3.280  0.6975  0.7704  0.0349
   88POPC   H8R11719   1.826   1.154   3.288  0.4707  0.3877 -0.6540
   88POPC   H8S11720   1.682   1.212   3.185 -2.1887  0.9573  1.5938
   88POPC   C2911721   1.643   1.199   3.392 -0.3375  0.1294 -0.7952
   88POPC   H9111722   1.616   1.286   3.454 -0.2028 -0.6517  0.3840
   88POPC  C21011723   1.598   1.079   3.425  0.0356 -0.2021 -0.2508
   88POPC  H10111724   1.523   1.075   3.505 -0.1919  1.7066 -0.3171
   88POPC  C21111725   1.620   0.949   3.344  0.6338 -0.1233  0.1133
   88POPC  H11R11726   1.674   0.968   3.249  1.5145 -1.6057  0.3021
   88POPC  H11S11727   1.514   0.923   3.322  0.1151  1.5502  0.4795
   88POPC  C21211728   1.698   0.840   3.422  0.3753  0.2207 -0.2048
   88POPC  H12R11729   1.684   0.742   3.372 -1.7707 -0.9709  2.4590
   88POPC  H12S11730   1.652   0.824   3.522 -2.6539  0.9732 -1.3643
   88POPC  C21311731   1.849   0.873   3.435  0.6940 -0.2302  0.1475
   88POPC  H13R11732   1.856   0.960   3.504 -0.9738  0.8881 -1.0201
   88POPC  H13S11733   1.891   0.898   3.335  2.5591 -1.6773  0.5123
   88POPC  C21411734   1.939   0.768   3.491  0.1805 -0.0553 -0.7373
   88POPC  H14R11735   1.890   0.741   3.587  0.6996  1.5877  0.0187
   88POPC  H14S11736   2.040   0.809   3.511 -0.4898  0.6883  1.4343
   88POPC  C21511737   1.950   0.641   3.415 -0.2320 -0.1844 -0.3616
   88POPC  H15R11738   1.860   0.593   3.371  0.9035 -0.5204 -2.4616
   88POPC  H15S11739   1.987   0.563   3.485 -2.1367  0.3010  1.2714
   88POPC  C21611740   2.053   0.646   3.293 -0.1222 -0.2166 -0.4014
   88POPC  H16R11741   2.139   0.705   3.332  0.1621 -1.6831  1.3340
   88POPC  H16S11742   1.997   0.711   3.222 -1.9819 -0.2878  0.9157
   88POPC  C21711743   2.089   0.511   3.229  0.3818  0.3593  0.0332
   88POPC  H17R11744   2.128   0.542   3.130 -1.1721 -3.6533 -2.0782
   88POPC  H17S11745   2.013   0.431   3.212  0.9368  0.1457 -1.6727
   88POPC  C21811746   2.195   0.431   3.303  1.2650 -0.5969  0.3211
   88POPC  H18R11747   2.150   0.360   3.375 -0.2282  0.1827  0.1903
   88POPC  H18S11748   2.276   0.498   3.339  0.3926 -0.5949  2.3777
   88POPC  H18T11749   2.240   0.362   3.228 -2.5320 -0.5752 -2.2735
   88POPC   C3311750   2.031   2.002   3.437  0.7255  0.3038  0.6656
   88POPC   H3X11751   1.953   2.007   3.357  1.3111 -0.3159  0.0329
   88POPC   H3Y11752   2.086   2.098   3.446 -0.6942  2.0134 -4.6650
   88POPC   C3411753   1.959   1.988   3.569 -0.0002  0.1942 -0.5978
   88POPC   H4X11754   1.912   2.085   3.596  1.2581  0.2354  1.7263
   88POPC   H4Y11755   2.019   1.947   3.653 -2.1168 -1.9466 -0.0300
   88POPC   C3511756   1.828   1.897   3.559  0.1496  0.5786  0.8182
   88POPC   H5X11757   1.853   1.792   3.533 -0.4284  0.7189 -0.3755
   88POPC   H5Y11758   1.776   1.934   3.469  1.9419  2.0888  0.3526
   88POPC   C3611759   1.741   1.908   3.679  0.0851  0.2615 -0.2830
   88POPC   H6X11760   1.670   1.822   3.686  0.8799 -0.3498  0.4994
   88POPC   H6Y11761   1.688   2.006   3.682  2.3762  1.6166 -1.6158
   88POPC   C3711762   1.817   1.901   3.816  0.6513  0.2161  0.3480
   88POPC   H7X11763   1.896   1.980   3.819  1.0568 -0.1550 -0.2426
   88POPC   H7Y11764   1.859   1.799   3.832 -1.7633 -0.5235  2.6238
   88POPC   C3811765   1.729   1.947   3.936  0.4127  0.0647  0.1735
   88POPC   H8X11766   1.638   1.883   3.937 -0.4906  1.3105 -0.1253
   88POPC   H8Y11767   1.682   2.043   3.906  0.3842 -0.3094 -1.0375
   88POPC   C3911768   1.808   1.970   4.059  0.3878 -0.3206  0.1374
   88POPC   H9X11769   1.899   2.031   4.040  0.5483 -0.7000 -0.3299
   88POPC   H9Y11770   1.833   1.871   4.102 -2.8351 -0.1205  2.9415
   88POPC  C31011771   1.729   2.043   4.166 -0.1529  0.4642 -0.2716
   88POPC  H10X11772   1.641   1.986   4.202  0.7663  0.1992  1.6320
   88POPC  H10Y11773   1.703   2.144   4.126  0.6568  1.4103  1.4980
   88POPC  C31111774   1.827   2.067   4.280 -0.2648 -0.0408  0.0970
   88POPC  H11X11775   1.791   2.133   4.362  0.5122  0.9032 -0.3022
   88POPC  H11Y11776   1.917   2.123   4.249  2.2689 -2.8080  1.9937
   88POPC  C31211777   1.899   1.935   4.335  1.0507 -0.3843  0.6899
   88POPC  H12X11778   1.982   1.910   4.265  0.1246 -0.1667 -0.5148
   88POPC  H12Y11779   1.820   1.859   4.317  1.5573 -0.6211 -0.6315
   88POPC  C31311780   1.957   1.965   4.477 -0.1046 -0.5228  0.5136
   88POPC  H13X11781   2.024   2.053   4.469 -2.8531  1.6384 -0.2399
   88POPC  H13Y11782   2.009   1.872   4.507  4.1966  1.7604  0.9136
   88POPC  C31411783   1.849   2.001   4.591  0.0075 -0.0516  0.2717
   88POPC  H14X11784   1.764   1.934   4.567  0.9604 -0.6386 -1.6654
   88POPC  H14Y11785   1.818   2.107   4.580  2.5638  0.8010  0.7133
   88POPC  C31511786   1.915   1.996   4.727 -0.5245  0.1583 -0.1481
   88POPC  H15X11787   2.020   2.027   4.708  0.4896 -1.5183  2.2589
   88POPC  H15Y11788   1.919   1.890   4.758  0.3860 -0.5772 -2.5075
   88POPC  C31611789   1.865   2.089   4.829  0.4354  0.1669 -0.5697
   88POPC  H16X11790   1.871   2.199   4.809  1.1712  0.2110 -0.1513
   88POPC  H16Y11791   1.932   2.079   4.917 -1.8282  0.5200  1.2773
   88POPC  H16Z11792   1.768   2.054   4.870  2.5056 -3.2840  1.9274
   89POPC     N11793   5.205   2.989   1.849 -0.2120  0.1497 -0.2382
   89POPC   C1211794   5.200   2.995   1.998 -0.1474 -0.2008 -0.0013
   89POPC  H12A11795   5.134   3.075   2.027 -0.0065  0.7476 -2.0961
   89POPC  H12B11796   5.292   3.027   2.044 -1.2085  0.1294  2.0079
   89POPC   C1311797   5.070   2.953   1.803 -0.8499  0.8675 -0.1048
   89POPC  H13A11798   5.064   2.961   1.696  1.1589 -0.2749 -0.3499
   89POPC  H13B11799   5.041   2.855   1.837 -1.2690  1.2198  0.5983
   89POPC  H13C11800   4.998   3.019   1.850 -1.2646 -0.9626  2.0426
   89POPC   C1411801   5.232   3.125   1.793  0.6987 -0.9362 -0.5284
   89POPC  H14A11802   5.334   3.159   1.807  0.3005  0.4601 -0.8655
   89POPC  H14B11803   5.223   3.127   1.686 -0.3487  1.7006 -0.4566
   89POPC  H14C11804   5.175   3.202   1.843  1.1257 -1.6089  1.0692
   89POPC   C1511805   5.309   2.893   1.811  0.5926 -0.3626  0.4018
   89POPC  H15A11806   5.411   2.920   1.835  1.0431 -1.9152  0.3346
   89POPC  H15B11807   5.307   2.887   1.703  0.1557  2.5498  0.1593
   89POPC  H15C11808   5.297   2.795   1.853  2.6867 -0.5094  0.7909
   89POPC   C1111809   5.157   2.863   2.076  0.9037  0.2524  0.1828
   89POPC  H11A11810   5.075   2.816   2.017 -0.1323  0.3769  1.5040
   89POPC  H11B11811   5.119   2.895   2.175 -1.4205  2.1027 -1.2089
   89POPC     P11812   5.371   2.807   2.194 -0.5446 -0.4025  0.3232
   89POPC   O1311813   5.372   2.955   2.207  0.2497  0.6272  0.0507
   89POPC   O1411814   5.503   2.742   2.160  0.0082  0.9474  0.6485
   89POPC   O1211815   5.261   2.775   2.079 -0.2356 -0.3832 -0.3587
   89POPC   O1111816   5.318   2.743   2.323  0.3173  0.1134 -0.4858
   89POPC    C111817   5.226   2.632   2.328 -0.2572 -0.2714 -0.4472
   89POPC    HA11818   5.239   2.557   2.247 -0.0702 -0.8139  0.0728
   89POPC    HB11819   5.121   2.667   2.328  0.4101  1.8568 -0.6831
   89POPC    C211820   5.256   2.553   2.458 -0.4430 -0.0319  0.1373
   89POPC    HS11821   5.188   2.466   2.461 -0.7584  0.2355  1.0714
   89POPC   O2111822   5.234   2.636   2.577  0.1110  0.6501  0.0085
   89POPC   C2111823   5.105   2.639   2.617 -0.3949 -0.2086  0.1793
   89POPC   O2211824   5.024   2.557   2.580 -0.6751  0.3489  0.0929
   89POPC   C2211825   5.094   2.743   2.728 -0.2893  0.2618  0.1622
   89POPC   H2R11826   4.989   2.735   2.766 -0.8230  3.0861 -0.4986
   89POPC   H2S11827   5.102   2.843   2.680 -0.9786  0.1980 -0.0995
   89POPC    C311828   5.400   2.511   2.466  0.1735  0.5256  0.1921
   89POPC    HX11829   5.459   2.605   2.465  1.3945 -0.1594 -2.6174
   89POPC    HY11830   5.425   2.452   2.375  0.1642 -0.7935  1.0216
   89POPC   O3111831   5.429   2.428   2.580  0.0729 -0.0903  0.6915
   89POPC   C3111832   5.375   2.304   2.571  0.3610 -0.0267 -0.5743
   89POPC   O3211833   5.335   2.248   2.467  0.5136 -0.0546 -0.1731
   89POPC   C3211834   5.399   2.230   2.707 -0.6506  0.2754 -0.5822
   89POPC   H2X11835   5.477   2.288   2.761  0.8169  0.9673 -3.2401
   89POPC   H2Y11836   5.461   2.142   2.678  0.7117  1.4439 -1.3858
   89POPC   C2311837   5.192   2.709   2.842  0.0589 -0.2356 -0.4437
   89POPC   H3R11838   5.287   2.660   2.814  0.6741  0.9254 -0.4508
   89POPC   H3S11839   5.139   2.635   2.907 -0.5578  0.0454 -0.6193
   89POPC   C2411840   5.242   2.833   2.931  0.5060  0.7335 -0.5292
   89POPC   H4R11841   5.284   2.920   2.876  1.2357  0.9998  0.4298
   89POPC   H4S11842   5.307   2.801   3.014 -2.4609 -1.7495  1.0299
   89POPC   C2511843   5.119   2.889   3.011  0.0164  0.5720 -0.6497
   89POPC   H5R11844   5.024   2.896   2.953 -1.5680 -0.8534  1.6045
   89POPC   H5S11845   5.134   2.996   3.036 -1.6726  0.4531  1.1062
   89POPC   C2611846   5.107   2.819   3.147  0.8876  0.2036  0.3718
   89POPC   H6R11847   5.206   2.826   3.197  0.3282  0.3986  1.4909
   89POPC   H6S11848   5.093   2.711   3.128 -0.4202  0.5923 -1.1068
   89POPC   C2711849   5.004   2.884   3.245 -0.2037  0.1728 -0.4002
   89POPC   H7R11850   4.905   2.901   3.198 -0.3421  2.2899  0.5392
   89POPC   H7S11851   5.038   2.988   3.267 -1.9165  0.1470  3.0025
   89POPC   C2811852   4.973   2.797   3.365  0.4246 -0.5820  0.6404
   89POPC   H8R11853   5.070   2.754   3.396  0.0659 -0.2447  2.3550
   89POPC   H8S11854   4.914   2.711   3.328  0.5552 -1.5754  2.6308
   89POPC   C2911855   4.888   2.860   3.477 -0.5389  0.2623 -1.0544
   89POPC   H9111856   4.803   2.923   3.446 -1.7507 -0.9049 -0.2146
   89POPC  C21011857   4.901   2.846   3.608 -0.1126 -0.4113 -0.2154
   89POPC  H10111858   4.828   2.897   3.673 -1.5712 -0.8594 -1.4397
   89POPC  C21111859   4.997   2.753   3.686 -0.0558  0.5252  0.5739
   89POPC  H11R11860   5.063   2.819   3.746 -1.1313  2.0851  0.0934
   89POPC  H11S11861   5.062   2.690   3.622  2.2597  2.4278  0.9398
   89POPC  C21211862   4.906   2.672   3.780  0.1847  0.3590 -0.4212
   89POPC  H12R11863   4.960   2.582   3.816 -0.8642  0.7275  2.3649
   89POPC  H12S11864   4.816   2.643   3.720  0.6700  0.0381 -1.0013
   89POPC  C21311865   4.857   2.748   3.902  0.1562  0.1585  0.3394
   89POPC  H13R11866   4.798   2.840   3.878  0.7819  0.7477  1.0247
   89POPC  H13S11867   4.944   2.797   3.950  0.9260  0.9372 -1.7782
   89POPC  C21411868   4.776   2.653   3.995 -0.1670 -0.0929  0.1035
   89POPC  H14R11869   4.697   2.604   3.934 -0.9856  1.2295  0.0634
   89POPC  H14S11870   4.722   2.697   4.082 -1.5896 -2.3134  0.4391
   89POPC  C21511871   4.858   2.539   4.064 -0.0499 -0.3130 -0.3626
   89POPC  H15R11872   4.928   2.493   3.992 -0.2804 -0.8938 -0.2251
   89POPC  H15S11873   4.782   2.462   4.089 -0.9892  0.2851 -1.3101
   89POPC  C21611874   4.925   2.579   4.195  0.5356 -0.1514 -0.4735
   89POPC  H16R11875   4.979   2.676   4.184 -1.3097  0.9279 -0.3955
   89POPC  H16S11876   4.998   2.497   4.217  1.5014  0.3189 -1.8055
   89POPC  C21711877   4.823   2.605   4.311 -0.2451 -0.0968  0.1440
   89POPC  H17R11878   4.760   2.517   4.336 -0.8494  0.6952  1.5475
   89POPC  H17S11879   4.754   2.688   4.285 -0.3823 -0.2412  0.0523
   89POPC  C21811880   4.895   2.644   4.441 -0.2299  0.3117 -0.1019
   89POPC  H18R11881   4.962   2.567   4.483 -0.9202  1.1236  2.6564
   89POPC  H18S11882   4.825   2.684   4.517  0.8363 -0.3386  1.2558
   89POPC  H18T11883   4.961   2.732   4.423 -0.7034  1.0720  1.6193
   89POPC   C3311884   5.273   2.205   2.786 -0.1091 -0.0743  0.3888
   89POPC   H3X11885   5.303   2.126   2.858 -0.6993 -1.4077 -0.7671
   89POPC   H3Y11886   5.193   2.165   2.720 -0.6908  0.4680  0.7550
   89POPC   C3411887   5.223   2.329   2.859  0.2919 -0.0308  0.6296
   89POPC   H4X11888   5.171   2.401   2.791 -0.1430 -0.0868  0.8942
   89POPC   H4Y11889   5.305   2.391   2.901  0.1722 -0.2661  1.2168
   89POPC   C3511890   5.127   2.308   2.975 -0.5251  0.4605 -0.0985
   89POPC   H5X11891   5.033   2.263   2.937 -0.6630 -0.2446  1.0115
   89POPC   H5Y11892   5.104   2.402   3.030  0.9579  1.4615 -1.1194
   89POPC   C3611893   5.179   2.202   3.077 -0.3793 -0.6742 -1.0087
   89POPC   H6X11894   5.278   2.235   3.114 -1.6453  3.7473 -0.9648
   89POPC   H6Y11895   5.182   2.103   3.027 -1.6726 -1.9449  1.2291
   89POPC   C3711896   5.087   2.212   3.203  0.8829  0.0405  0.5620
   89POPC   H7X11897   4.994   2.156   3.178  0.3924  0.1327  2.1016
   89POPC   H7Y11898   5.060   2.317   3.228  1.0035  0.0176  0.7858
   89POPC   C3811899   5.156   2.160   3.329 -0.1393  0.6113  0.2110
   89POPC   H8X11900   5.218   2.237   3.380 -0.3595 -0.6547  2.5295
   89POPC   H8Y11901   5.225   2.074   3.317 -1.4842 -0.4439 -0.2625
   89POPC   C3911902   5.051   2.118   3.437 -0.1311  0.8752 -0.0042
   89POPC   H9X11903   4.982   2.037   3.402 -0.6890  1.0746  0.6340
   89POPC   H9Y11904   4.993   2.202   3.480 -1.8354 -0.7368  0.9940
   89POPC  C31011905   5.119   2.046   3.566  0.6044  0.0355  0.0812
   89POPC  H10X11906   5.187   2.119   3.616 -1.4461  0.6422  2.2131
   89POPC  H10Y11907   5.179   1.961   3.527 -1.8456 -2.4145  1.2602
   89POPC  C31111908   5.009   2.006   3.667  0.0922 -0.9005 -0.7025
   89POPC  H11X11909   4.947   1.925   3.624 -1.2339  1.0555 -2.6694
   89POPC  H11Y11910   4.945   2.096   3.676  2.3849  0.6412  1.4127
   89POPC  C31211911   5.052   1.972   3.809 -1.0051  0.6883 -1.0144
   89POPC  H12X11912   4.964   1.965   3.877 -0.2381 -1.3132 -0.1407
   89POPC  H12Y11913   5.136   2.037   3.842  0.4666 -1.6035  0.0073
   89POPC  C31311914   5.119   1.831   3.809  0.4320  0.1141  0.1681
   89POPC  H13X11915   5.191   1.833   3.724 -1.3771  1.5467 -1.4202
   89POPC  H13Y11916   5.051   1.748   3.779  1.9988 -1.6766  1.3179
   89POPC  C31411917   5.183   1.784   3.943  0.1323 -0.5309  0.3931
   89POPC  H14X11918   5.251   1.698   3.923 -0.1000 -0.3001 -1.6470
   89POPC  H14Y11919   5.102   1.760   4.015  0.0821 -1.3806  0.0669
   89POPC  C31511920   5.286   1.890   4.006 -0.4552  0.4379  0.3116
   89POPC  H15X11921   5.224   1.982   4.014 -1.3753 -0.0755 -0.5623
   89POPC  H15Y11922   5.371   1.899   3.935  1.6544 -4.3072  1.8566
   89POPC  C31611923   5.352   1.844   4.142 -0.1325  0.1338  0.0789
   89POPC  H16X11924   5.423   1.916   4.189  2.4214 -2.2294  0.0841
   89POPC  H16Y11925   5.407   1.750   4.122 -1.4233 -0.7073  0.3616
   89POPC  H16Z11926   5.270   1.821   4.213  0.8618 -1.5583  0.7247
   90POPC     N11927   3.841   5.399   1.665 -0.1592 -0.1118  0.4705
   90POPC   C1211928   3.773   5.450   1.788 -0.3848  0.5719 -0.0932
   90POPC  H12A11929   3.680   5.398   1.800 -0.4042  0.8390  1.0605
   90POPC  H12B11930   3.747   5.555   1.784 -0.8209  0.4467 -0.5801
   90POPC   C1311931   3.797   5.472   1.541  0.4916  0.0842  0.5021
   90POPC  H13A11932   3.854   5.451   1.452  2.5095 -0.0149  1.7364
   90POPC  H13B11933   3.692   5.458   1.522  0.5974  2.3365 -2.3484
   90POPC  H13C11934   3.792   5.577   1.561  0.1741  0.3675 -0.9521
   90POPC   C1411935   3.984   5.418   1.667  0.0104  0.4126  0.3669
   90POPC  H14A11936   4.028   5.392   1.762  0.7657 -0.1354 -0.1217
   90POPC  H14B11937   4.016   5.339   1.601 -1.7231  0.8266 -1.0393
   90POPC  H14C11938   4.018   5.507   1.617  0.6361  0.2794  0.5537
   90POPC   C1511939   3.806   5.253   1.659 -0.1841  0.6107  0.3160
   90POPC  H15A11940   3.862   5.183   1.718 -0.5054  0.3074  0.2668
   90POPC  H15B11941   3.815   5.224   1.555 -0.5860 -1.2255  0.7535
   90POPC  H15C11942   3.701   5.238   1.681  0.2032 -1.3214  1.0855
   90POPC   C1111943   3.840   5.421   1.926 -0.1812 -0.0809 -0.2252
   90POPC  H11A11944   3.776   5.459   2.007  0.3116  0.7951 -0.2390
   90POPC  H11B11945   3.931   5.485   1.927 -0.5603  0.4983 -1.2196
   90POPC     P11946   3.768   5.185   2.001 -0.0736 -0.1940 -0.1112
   90POPC   O1311947   3.783   5.066   1.913 -0.3594 -0.0337  0.1570
   90POPC   O1411948   3.640   5.256   2.000  0.4729 -0.1126  0.6220
   90POPC   O1211949   3.880   5.287   1.949 -0.0805 -0.1105  0.0566
   90POPC   O1111950   3.826   5.140   2.138  0.1593  1.0211  0.5768
   90POPC    C111951   3.884   5.224   2.243 -0.0491 -0.5643 -0.3904
   90POPC    HA11952   3.828   5.318   2.260  2.8583  1.0839  0.7072
   90POPC    HB11953   3.988   5.251   2.213  0.0630  0.8039  1.0606
   90POPC    C211954   3.880   5.153   2.383  0.1444  0.2042  0.4670
   90POPC    HS11955   3.771   5.141   2.400 -0.3114 -1.0690 -2.5804
   90POPC   O2111956   3.937   5.226   2.490 -0.3634  0.1541 -0.9821
   90POPC   C2111957   3.877   5.338   2.524  0.3081  0.1130  0.0362
   90POPC   O2211958   3.788   5.395   2.465  0.5338  0.1215  0.1783
   90POPC   C2211959   3.941   5.413   2.644 -0.1261 -0.4143  0.3191
   90POPC   H2R11960   3.867   5.488   2.681  1.9380  1.1537  1.4791
   90POPC   H2S11961   4.023   5.483   2.617 -0.6331  0.6082  1.3329
   90POPC    C311962   3.933   5.004   2.375 -0.3823 -0.2010  0.2254
   90POPC    HX11963   4.028   5.005   2.318 -0.2953 -0.9537  0.3443
   90POPC    HY11964   3.869   4.949   2.303  1.5316  0.9764 -2.5183
   90POPC   O3111965   3.963   4.945   2.501  0.1277 -0.9153 -0.3023
   90POPC   C3111966   3.856   4.916   2.575  0.3237  0.1780  0.2751
   90POPC   O3211967   3.740   4.942   2.543  0.1660  0.4246 -0.2103
   90POPC   C3211968   3.891   4.859   2.706  0.0690 -0.3376  0.1709
   90POPC   H2X11969   3.957   4.931   2.759  0.1990  0.3222 -0.8779
   90POPC   H2Y11970   3.963   4.776   2.687  2.3505  1.5113  0.2848
   90POPC   C2311971   3.974   5.314   2.757 -0.1159  0.4885  0.2680
   90POPC   H3R11972   4.037   5.232   2.716 -0.4245  0.1385  0.4910
   90POPC   H3S11973   3.888   5.251   2.787 -0.0793 -1.3644 -3.0310
   90POPC   C2411974   4.037   5.369   2.883 -0.5398 -0.1467  0.4685
   90POPC   H4R11975   3.968   5.422   2.952 -1.5764 -1.5799  0.5762
   90POPC   H4S11976   4.114   5.442   2.850  0.2556 -1.6342 -1.0991
   90POPC   C2511977   4.104   5.267   2.975 -0.2375  0.3181 -0.1086
   90POPC   H5R11978   4.192   5.221   2.925  0.0428  1.1235 -0.3778
   90POPC   H5S11979   4.032   5.185   2.991 -0.9105  1.2547  2.1056
   90POPC   C2611980   4.163   5.316   3.110 -0.2835  0.1898 -0.2637
   90POPC   H6R11981   4.219   5.237   3.164 -0.2030  0.4000 -0.0385
   90POPC   H6S11982   4.077   5.344   3.173  0.5833 -0.3043  1.1846
   90POPC   C2711983   4.253   5.449   3.102 -0.0691 -0.3921  0.5605
   90POPC   H7R11984   4.192   5.527   3.054 -0.2718 -0.8670  0.0310
   90POPC   H7S11985   4.332   5.426   3.027 -1.2408  3.3069 -2.0775
   90POPC   C2811986   4.342   5.486   3.220  1.3110 -0.2934  0.5558
   90POPC   H8R11987   4.424   5.557   3.198  1.8846 -0.0182  3.2410
   90POPC   H8S11988   4.388   5.391   3.254  1.2616 -1.3281 -2.0197
   90POPC   C2911989   4.260   5.545   3.330 -0.7177 -0.2512 -0.3931
   90POPC   H9111990   4.250   5.654   3.322  1.4653 -0.0957 -1.9040
   90POPC  C21011991   4.216   5.487   3.441  0.5517  0.2403  0.2333
   90POPC  H10111992   4.156   5.549   3.510  0.5873  2.5591 -1.7160
   90POPC  C21111993   4.237   5.340   3.477 -0.2060 -0.0182 -0.6506
   90POPC  H11R11994   4.335   5.306   3.438  0.3128  1.2991 -0.5643
   90POPC  H11S11995   4.162   5.281   3.420  1.6284 -1.4957 -1.6391
   90POPC  C21211996   4.243   5.304   3.631  0.6605  0.4504  0.4616
   90POPC  H12R11997   4.326   5.364   3.675  2.0991 -0.4682 -0.8910
   90POPC  H12S11998   4.271   5.197   3.648 -0.5729  0.0692  0.1867
   90POPC  C21311999   4.101   5.304   3.693 -0.5273 -0.7514 -0.0644
   90POPC  H13R12000   4.043   5.221   3.647  0.6853 -1.4155 -0.4379
   90POPC  H13S12001   4.061   5.401   3.658 -1.2353 -1.2691 -0.7057
   90POPC  C21412002   4.106   5.291   3.845 -0.3880  0.7321 -0.5297
   90POPC  H14R12003   4.140   5.378   3.904 -0.3513  1.0366 -0.9923
   90POPC  H14S12004   4.173   5.209   3.878 -0.7123  0.6356 -0.0962
   90POPC  C21512005   3.961   5.264   3.885  0.1242 -0.0640 -0.2688
   90POPC  H15R12006   3.920   5.170   3.843  0.3225 -0.9678  1.4489
   90POPC  H15S12007   3.890   5.345   3.858  2.0397  2.3120  1.3879
   90POPC  C21612008   3.941   5.244   4.030 -0.7780 -0.2829 -0.4584
   90POPC  H16R12009   3.982   5.332   4.084  0.5604  0.1408 -2.1140
   90POPC  H16S12010   4.007   5.161   4.063 -1.6300 -0.0466  2.0807
   90POPC  C21712011   3.796   5.216   4.067 -0.2224 -0.0273  0.3849
   90POPC  H17R12012   3.791   5.179   4.171 -1.1693 -1.0234  0.0067
   90POPC  H17S12013   3.759   5.131   4.005  0.7252 -0.1226 -0.0638
   90POPC  C21812014   3.700   5.336   4.058 -0.1100 -0.5355 -0.1235
   90POPC  H18R12015   3.723   5.393   3.964 -0.9300  0.4362  0.2481
   90POPC  H18S12016   3.710   5.401   4.148 -4.1869 -0.0358  0.1644
   90POPC  H18T12017   3.595   5.301   4.063  0.5343 -2.6488 -0.5824
   90POPC   C3312018   3.761   4.842   2.803 -0.9959 -0.3598 -0.4956
   90POPC   H3X12019   3.685   4.783   2.748 -0.2101 -1.2797 -0.6272
   90POPC   H3Y12020   3.720   4.945   2.816 -0.4077  0.2013 -2.6177
   90POPC   C3412021   3.795   4.770   2.935 -0.1571  0.4234 -0.4424
   90POPC   H4X12022   3.872   4.694   2.909 -0.2374 -0.7064  2.3604
   90POPC   H4Y12023   3.702   4.716   2.960 -1.5385  1.8777 -2.1549
   90POPC   C3512024   3.860   4.862   3.041  0.0059 -0.1625 -0.0243
   90POPC   H5X12025   3.948   4.903   2.988 -1.7046  0.8164 -2.3121
   90POPC   H5Y12026   3.893   4.795   3.123  1.7025  1.4349  0.6758
   90POPC   C3612027   3.767   4.975   3.092  0.8343 -0.1523  0.2290
   90POPC   H6X12028   3.741   5.038   3.005 -0.2644  0.2382  0.8185
   90POPC   H6Y12029   3.821   5.038   3.166  0.6007 -1.4826  1.6058
   90POPC   C3712030   3.638   4.926   3.169  0.4262 -0.5652  0.3419
   90POPC   H7X12031   3.574   4.854   3.113  1.1503 -1.1956  0.3103
   90POPC   H7Y12032   3.577   5.018   3.179  3.0543  1.3267 -0.0014
   90POPC   C3812033   3.668   4.862   3.306 -0.2107 -0.0119  0.2499
   90POPC   H8X12034   3.763   4.914   3.331  0.4601  0.0593 -2.1894
   90POPC   H8Y12035   3.696   4.756   3.286 -2.9050 -0.1581 -3.9117
   90POPC   C3912036   3.571   4.885   3.422 -0.1785 -0.1307  0.5392
   90POPC   H9X12037   3.568   4.996   3.416  3.5209  0.0698 -0.5926
   90POPC   H9Y12038   3.628   4.855   3.512 -1.4068 -2.5255  0.5826
   90POPC  C31012039   3.439   4.815   3.413  0.4465 -0.1982 -0.2777
   90POPC  H10X12040   3.460   4.708   3.391 -0.8037 -1.0000  2.0374
   90POPC  H10Y12041   3.381   4.854   3.327  1.2475  1.4348 -0.1104
   90POPC  C31112042   3.359   4.817   3.537  0.1265 -0.0896  0.5270
   90POPC  H11X12043   3.333   4.920   3.571  2.2303  0.7262 -0.2380
   90POPC  H11Y12044   3.422   4.760   3.609  3.7826  0.9799 -1.5865
   90POPC  C31212045   3.234   4.729   3.530 -0.0141 -0.3921 -0.7266
   90POPC  H12X12046   3.175   4.732   3.624 -0.5697 -0.9480 -1.0505
   90POPC  H12Y12047   3.277   4.627   3.527 -0.2014 -0.5062  0.1909
   90POPC  C31312048   3.143   4.768   3.415  0.0482  0.1814  0.3884
   90POPC  H13X12049   3.188   4.747   3.316 -0.9838  2.3903 -0.6248
   90POPC  H13Y12050   3.135   4.879   3.419  0.0978  0.1597  1.5882
   90POPC  C31412051   3.005   4.701   3.415 -0.2760 -0.5838  0.3354
   90POPC  H14X12052   2.971   4.711   3.520  1.0440  0.2734  0.7101
   90POPC  H14Y12053   3.017   4.595   3.385  1.9145  0.1777 -1.8575
   90POPC  C31512054   2.907   4.778   3.329  0.5020 -0.1395  0.3117
   90POPC  H15X12055   2.817   4.715   3.314 -0.5696  1.5235 -0.5868
   90POPC  H15Y12056   2.953   4.809   3.233 -0.8616  2.3803  0.4137
   90POPC  C31612057   2.848   4.912   3.384  0.3416 -0.0612  0.0994
   90POPC  H16X12058   2.774   4.960   3.317 -0.2994  2.6025  2.5353
   90POPC  H16Y12059   2.916   4.999   3.397 -0.1907  0.2149  1.1519
   90POPC  H16Z12060   2.812   4.905   3.489  1.3200 -0.4968  0.4214
   91POPC     N12061   4.667   0.488   1.979  0.6212 -0.4928  0.5319
   91POPC   C1212062   4.703   0.512   2.120 -0.0851  0.2698 -0.3622
   91POPC  H12A12063   4.781   0.587   2.126 -0.1082  0.4563 -1.9699
   91POPC  H12B12064   4.761   0.429   2.159  0.5496  0.5840 -0.6187
   91POPC   C1312065   4.572   0.375   1.955 -0.0760 -0.2074 -0.1503
   91POPC  H13A12066   4.537   0.365   1.853 -2.4037  0.4905  0.5208
   91POPC  H13B12067   4.624   0.280   1.962  0.5560  0.0761 -0.8422
   91POPC  H13C12068   4.498   0.385   2.032 -1.4443 -2.4474 -1.0522
   91POPC   C1412069   4.597   0.611   1.924 -0.0164 -0.4481  0.5133
   91POPC  H14A12070   4.508   0.587   1.867 -1.6449  2.5762  1.5415
   91POPC  H14B12071   4.580   0.671   2.012  1.7716 -1.5289  1.6655
   91POPC  H14C12072   4.670   0.654   1.857  0.3341 -0.9554  0.5645
   91POPC   C1512073   4.781   0.450   1.897 -0.6376  0.4492 -0.6163
   91POPC  H15A12074   4.861   0.522   1.904 -0.7368  0.4393  0.8042
   91POPC  H15B12075   4.744   0.451   1.795 -1.0999 -0.1332 -0.4599
   91POPC  H15C12076   4.826   0.356   1.925 -0.5054  0.1262 -1.8508
   91POPC   C1112077   4.596   0.540   2.226  0.4000 -0.4673  0.3523
   91POPC  H11A12078   4.645   0.522   2.324 -1.4919  1.5345  1.7554
   91POPC  H11B12079   4.514   0.467   2.209  0.3696 -0.7513  1.6474
   91POPC     P12080   4.398   0.697   2.285  0.5182 -0.1078  0.5357
   91POPC   O1312081   4.303   0.622   2.206  0.0038  0.2553  0.7641
   91POPC   O1412082   4.366   0.842   2.300 -0.3646 -0.1157 -0.5672
   91POPC   O1212083   4.545   0.672   2.221  0.5710  0.3131  0.6031
   91POPC   O1112084   4.411   0.636   2.419 -0.1774 -0.2682  0.5636
   91POPC    C112085   4.503   0.684   2.518 -0.5930  0.6408  0.0766
   91POPC    HA12086   4.599   0.727   2.485  0.9951 -2.5900  0.0979
   91POPC    HB12087   4.532   0.595   2.578  0.3090  1.0700  0.2849
   91POPC    C212088   4.422   0.774   2.628  0.5497 -0.4557  0.6705
   91POPC    HS12089   4.398   0.869   2.576  2.0544  0.4976  1.6190
   91POPC   O2112090   4.502   0.798   2.739  0.3350 -0.5956 -0.1375
   91POPC   C2112091   4.473   0.910   2.805  0.7999 -0.2844 -0.7486
   91POPC   O2212092   4.402   1.000   2.764  0.7717  0.0065 -0.3374
   91POPC   C2212093   4.564   0.917   2.932  0.2426 -1.2274  0.1653
   91POPC   H2R12094   4.606   0.815   2.930  0.4063 -1.1702 -1.5920
   91POPC   H2S12095   4.489   0.930   3.013 -1.8008 -0.3039 -1.7371
   91POPC    C312096   4.296   0.690   2.668  0.1378 -0.7203  0.3309
   91POPC    HX12097   4.228   0.677   2.581 -0.9674  0.2950  1.0089
   91POPC    HY12098   4.243   0.747   2.747  1.5118 -1.6439  1.9843
   91POPC   O3112099   4.322   0.555   2.715  0.1470 -0.5066 -0.2034
   91POPC   C3112100   4.360   0.545   2.841  0.2527  0.0776  0.2692
   91POPC   O3212101   4.368   0.632   2.923 -0.1337 -0.3222  0.0261
   91POPC   C3212102   4.371   0.393   2.878 -0.1820 -0.7256  0.6056
   91POPC   H2X12103   4.473   0.364   2.843  0.0931  0.9240 -0.0426
   91POPC   H2Y12104   4.306   0.337   2.807  2.1017 -0.4188 -1.9042
   91POPC   C2312105   4.668   1.031   2.946  0.4377 -0.8622 -0.0758
   91POPC   H3R12106   4.612   1.127   2.942 -0.9249 -1.5684  0.9278
   91POPC   H3S12107   4.753   1.020   2.875  0.9343  0.2682  0.3219
   91POPC   C2412108   4.725   1.028   3.099 -0.3828 -0.3052  0.4990
   91POPC   H4R12109   4.779   0.933   3.117 -1.8833 -1.5398 -1.1675
   91POPC   H4S12110   4.655   1.041   3.184  1.1772  0.0499  1.7739
   91POPC   C2512111   4.827   1.149   3.112  0.0792 -0.6162  0.7012
   91POPC   H5R12112   4.782   1.238   3.064 -0.2994  0.9416  3.7031
   91POPC   H5S12113   4.915   1.144   3.045 -0.6831 -0.7975 -0.3157
   91POPC   C2612114   4.871   1.184   3.256  0.3246  0.2855  0.1032
   91POPC   H6R12115   4.783   1.208   3.319 -0.3934 -0.0208 -0.7592
   91POPC   H6S12116   4.923   1.282   3.258 -0.9996  1.0071  0.6566
   91POPC   C2712117   4.959   1.084   3.327  0.8633  0.3237  0.4330
   91POPC   H7R12118   5.063   1.118   3.309  0.3746  0.0585 -3.6484
   91POPC   H7S12119   4.960   0.982   3.285  1.8153  0.0107  1.1705
   91POPC   C2812120   4.927   1.069   3.479  0.6752  0.0488  0.3067
   91POPC   H8R12121   4.935   1.166   3.532 -0.3962  0.2710  0.0824
   91POPC   H8S12122   5.007   0.995   3.504  1.3447  1.0897  1.3334
   91POPC   C2912123   4.794   1.006   3.494  0.4527 -0.0727  0.4565
   91POPC   H9112124   4.741   0.985   3.400  2.0644  0.7181 -0.6804
   91POPC  C21012125   4.725   0.977   3.604  0.2602 -0.2103  0.6593
   91POPC  H10112126   4.622   0.944   3.585  0.1919  1.0834 -1.5979
   91POPC  C21112127   4.765   1.010   3.746 -0.0723  0.4507 -0.0806
   91POPC  H11R12128   4.709   1.100   3.779  0.8719  0.6880  0.9256
   91POPC  H11S12129   4.872   1.041   3.749  0.5748 -1.6868  0.8369
   91POPC  C21212130   4.744   0.893   3.843  0.2334 -0.1199  0.7547
   91POPC  H12R12131   4.820   0.893   3.924  0.4759  2.8273  0.6266
   91POPC  H12S12132   4.753   0.796   3.788 -2.4012 -0.7924  1.3746
   91POPC  C21312133   4.604   0.883   3.904 -0.3537  0.1300 -0.2709
   91POPC  H13R12134   4.528   0.888   3.823  0.2212 -2.8352 -1.1194
   91POPC  H13S12135   4.586   0.972   3.967  0.2629 -0.8411  1.3465
   91POPC  C21412136   4.582   0.758   3.998 -0.2446  0.7378 -0.1383
   91POPC  H14R12137   4.658   0.683   3.970 -0.4653  0.2731  0.5029
   91POPC  H14S12138   4.478   0.726   3.975 -0.2116  0.9541 -0.6166
   91POPC  C21512139   4.584   0.790   4.149 -0.3618  0.2541  0.0407
   91POPC  H15R12140   4.533   0.705   4.199 -2.1718  0.2150 -1.7683
   91POPC  H15S12141   4.517   0.874   4.179 -1.1995 -1.0310  1.9286
   91POPC  C21612142   4.727   0.816   4.206 -0.1581 -0.4532  0.6357
   91POPC  H16R12143   4.811   0.767   4.154  0.7127  1.4776  0.1386
   91POPC  H16S12144   4.734   0.776   4.309 -1.4574  0.0101  0.9309
   91POPC  C21712145   4.754   0.970   4.200 -0.3571  0.0306 -0.5517
   91POPC  H17R12146   4.667   1.032   4.231  0.3499 -0.0562  1.7501
   91POPC  H17S12147   4.759   0.985   4.090  2.3140  1.1187 -0.3738
   91POPC  C21812148   4.891   1.004   4.257 -0.2634 -0.1579 -0.2768
   91POPC  H18R12149   4.963   0.985   4.175 -1.0689  0.8923 -1.2632
   91POPC  H18S12150   4.912   0.941   4.345  1.9045  0.9961  0.1000
   91POPC  H18T12151   4.908   1.109   4.289  3.4858 -0.7458  0.0748
   91POPC   C3312152   4.338   0.353   3.023  0.2990  0.3867  0.3393
   91POPC   H3X12153   4.232   0.375   3.049  0.2982 -1.2881  1.9776
   91POPC   H3Y12154   4.399   0.412   3.094 -0.8427  1.6971  0.2667
   91POPC   C3412155   4.370   0.204   3.032 -0.0236 -0.2009  1.1257
   91POPC   H4X12156   4.480   0.189   3.028 -0.0664 -0.2320 -1.3651
   91POPC   H4Y12157   4.340   0.143   2.945  1.7657 -0.3550  0.5725
   91POPC   C3512158   4.309   0.136   3.160 -0.3163  0.2139  0.3386
   91POPC   H5X12159   4.317   0.026   3.146  1.0929  0.5545 -2.1099
   91POPC   H5Y12160   4.201   0.161   3.163 -0.0405  2.2783 -2.5376
   91POPC   C3612161   4.367   0.182   3.294  0.4955  0.4124  0.2370
   91POPC   H6X12162   4.477   0.193   3.281  0.6861 -0.1512  1.2778
   91POPC   H6Y12163   4.349   0.094   3.360 -2.8007  0.4725 -0.3877
   91POPC   C3712164   4.300   0.308   3.356  0.2246  0.2562 -0.2224
   91POPC   H7X12165   4.312   0.392   3.285 -0.7157 -0.3186 -1.0863
   91POPC   H7Y12166   4.358   0.330   3.449 -1.3173  1.3551  0.5214
   91POPC   C3812167   4.150   0.299   3.395  0.1342 -0.4277  0.3692
   91POPC   H8X12168   4.141   0.205   3.454 -2.1157 -0.0852  0.6420
   91POPC   H8Y12169   4.077   0.280   3.313 -0.7898 -1.0256  1.2995
   91POPC   C3912170   4.101   0.415   3.489 -0.2399  0.2478  0.5563
   91POPC   H9X12171   3.991   0.408   3.480 -0.0373 -0.9051 -4.4558
   91POPC   H9Y12172   4.135   0.514   3.452 -2.0384  0.8605  0.4585
   91POPC  C31012173   4.141   0.384   3.631  0.2486 -0.3087 -0.4920
   91POPC  H10X12174   4.250   0.371   3.649  0.0780 -0.5255  0.4764
   91POPC  H10Y12175   4.086   0.294   3.666 -0.3055  0.7082  1.4268
   91POPC  C31112176   4.099   0.506   3.719  0.1093 -0.7709 -0.2430
   91POPC  H11X12177   3.992   0.530   3.701  0.3960 -0.1069 -1.1470
   91POPC  H11Y12178   4.150   0.597   3.679  0.7460 -1.4126 -0.9156
   91POPC  C31212179   4.126   0.498   3.866  0.0796 -0.4463  0.0598
   91POPC  H12X12180   4.235   0.480   3.881  0.8793  3.9326  0.7324
   91POPC  H12Y12181   4.064   0.414   3.905 -1.3579  1.1237  1.2611
   91POPC  C31312182   4.082   0.615   3.954 -0.0987  0.3447 -0.0361
   91POPC  H13X12183   3.973   0.626   3.973 -0.5028 -3.0870  0.2218
   91POPC  H13Y12184   4.117   0.712   3.913 -1.0375 -0.0994 -2.0355
   91POPC  C31412185   4.151   0.602   4.094  0.3971 -0.1175 -0.0999
   91POPC  H14X12186   4.260   0.586   4.082  0.4760  0.0416  0.3746
   91POPC  H14Y12187   4.095   0.516   4.137  2.5979 -0.8946  1.3921
   91POPC  C31512188   4.126   0.730   4.173  0.3834  0.1253  0.0819
   91POPC  H15X12189   4.016   0.748   4.176  0.3828  0.5096 -1.6106
   91POPC  H15Y12190   4.172   0.809   4.110 -0.2494 -1.0038 -1.8821
   91POPC  C31612191   4.183   0.733   4.313 -0.2850 -0.7190 -0.3833
   91POPC  H16X12192   4.275   0.671   4.321  0.5756  0.5941  0.4087
   91POPC  H16Y12193   4.112   0.697   4.391 -1.1163  1.2200 -0.1836
   91POPC  H16Z12194   4.220   0.836   4.332  1.8460 -1.8179  2.0888
   92POPC     N12195   4.735   6.032   2.146 -0.4044  0.0811 -0.0995
   92POPC   C1212196   4.630   5.932   2.134  0.3804  0.6386  0.8392
   92POPC  H12A12197   4.539   5.979   2.100  1.5263 -0.0537 -3.8140
   92POPC  H12B12198   4.622   5.884   2.231  1.1481 -0.1339  0.5340
   92POPC   C1312199   4.870   5.970   2.179 -0.1158 -0.0334  0.3627
   92POPC  H13A12200   4.942   6.043   2.210  1.0319 -0.9693 -0.0423
   92POPC  H13B12201   4.860   5.889   2.250  0.7112  1.2756  2.0183
   92POPC  H13C12202   4.898   5.930   2.083 -2.8906  0.7933 -0.9134
   92POPC   C1412203   4.758   6.117   2.029 -0.3922  0.4587  0.8372
   92POPC  H14A12204   4.802   6.058   1.950  2.9860  0.9957  2.1682
   92POPC  H14B12205   4.671   6.171   1.996 -1.4203 -2.0202 -0.8159
   92POPC  H14C12206   4.838   6.188   2.041 -1.5002  1.7851  0.7043
   92POPC   C1512207   4.693   6.121   2.258  0.1926 -0.4248 -0.1814
   92POPC  H15A12208   4.776   6.188   2.273 -0.4368  0.4850 -0.6338
   92POPC  H15B12209   4.663   6.071   2.349 -2.1724  1.6915  0.3198
   92POPC  H15C12210   4.604   6.178   2.233  0.6530  0.1508 -0.5322
   92POPC   C1112211   4.654   5.826   2.019 -0.1008 -0.0499 -0.2696
   92POPC  H11A12212   4.752   5.777   2.037  0.0102  0.2838  0.0600
   92POPC  H11B12213   4.654   5.887   1.927 -0.7041 -0.2432 -0.4057
   92POPC     P12214   4.505   5.644   2.136  0.2426 -0.4725  0.7015
   92POPC   O1312215   4.424   5.530   2.084 -0.1044  0.0426  0.4223
   92POPC   O1412216   4.443   5.708   2.250 -0.0053 -0.4212  0.0282
   92POPC   O1212217   4.535   5.743   2.015  0.2836  0.2202 -0.0755
   92POPC   O1112218   4.650   5.596   2.172  0.0593 -0.1980  0.2198
   92POPC    C112219   4.664   5.466   2.217  0.5158 -0.2381 -0.2082
   92POPC    HA12220   4.773   5.447   2.224  0.7404  1.3379  0.9032
   92POPC    HB12221   4.650   5.394   2.133 -1.9816  0.5805 -0.5810
   92POPC    C212222   4.587   5.418   2.345 -0.1333 -0.1813 -0.6865
   92POPC    HS12223   4.478   5.411   2.328 -0.4517  2.2636 -0.0399
   92POPC   O2112224   4.608   5.512   2.451 -0.1195  0.3682 -0.2572
   92POPC   C2112225   4.528   5.517   2.551  0.5745  0.5378  0.3195
   92POPC   O2212226   4.415   5.469   2.557  0.3977  0.1236  0.3058
   92POPC   C2212227   4.584   5.612   2.654 -0.1151  0.2168  0.7657
   92POPC   H2R12228   4.625   5.705   2.609  0.4217 -0.3389  0.0762
   92POPC   H2S12229   4.670   5.557   2.698 -0.4210 -0.5854  0.3991
   92POPC    C312230   4.638   5.270   2.380  0.3761  0.2661 -0.8396
   92POPC    HX12231   4.749   5.279   2.382  0.2801  4.0245 -2.6018
   92POPC    HY12232   4.631   5.204   2.290  2.6663  0.3718 -1.1708
   92POPC   O3112233   4.586   5.206   2.501 -0.4630 -0.0296 -0.1426
   92POPC   C3112234   4.489   5.124   2.486  0.3045  0.1423  0.6525
   92POPC   O3212235   4.444   5.095   2.376  0.1490  0.1491  0.4424
   92POPC   C3212236   4.445   5.058   2.615  0.2491  0.1706 -0.3673
   92POPC   H2X12237   4.419   5.141   2.684  1.4148 -0.7523  1.2854
   92POPC   H2Y12238   4.539   5.009   2.651  0.3293 -0.0430 -0.8672
   92POPC   C2312239   4.482   5.658   2.756 -0.3359 -0.4068 -0.2130
   92POPC   H3R12240   4.410   5.578   2.783  0.9646 -1.8015 -0.7469
   92POPC   H3S12241   4.421   5.730   2.698  0.4487  0.6752  0.2726
   92POPC   C2412242   4.540   5.733   2.875  0.0384 -0.5099  0.5536
   92POPC   H4R12243   4.592   5.815   2.820  2.0959 -0.3907  2.5086
   92POPC   H4S12244   4.620   5.673   2.923 -0.0940  0.0629  1.4986
   92POPC   C2512245   4.434   5.789   2.971  0.6540  1.1135 -0.5537
   92POPC   H5R12246   4.383   5.706   3.024  0.4124  1.7216  0.1908
   92POPC   H5S12247   4.371   5.848   2.901 -2.2918 -0.0371  0.9207
   92POPC   C2612248   4.485   5.873   3.088 -0.6618 -0.9047  0.3175
   92POPC   H6R12249   4.543   5.964   3.064  0.9980 -1.7168  1.0912
   92POPC   H6S12250   4.554   5.812   3.150 -1.8350 -0.7454  1.8394
   92POPC   C2712251   4.370   5.906   3.186 -0.1025 -0.3951  0.2077
   92POPC   H7R12252   4.314   5.814   3.215 -1.0728  0.8345  2.4997
   92POPC   H7S12253   4.293   5.978   3.150  0.3598  1.7087  3.0611
   92POPC   C2812254   4.432   5.948   3.328  0.4229  0.5595 -0.1646
   92POPC   H8R12255   4.528   5.998   3.300  0.7580 -0.1621 -0.3309
   92POPC   H8S12256   4.462   5.855   3.380  0.7616  0.9931  0.4226
   92POPC   C2912257   4.336   6.030   3.408 -0.4655 -0.4296 -0.4002
   92POPC   H9112258   4.332   6.138   3.385  0.4088  0.0831  1.5966
   92POPC  C21012259   4.261   5.983   3.508  0.1490 -0.4339  0.0687
   92POPC  H10112260   4.182   6.038   3.561 -1.7316 -1.9690 -0.9942
   92POPC  C21112261   4.264   5.845   3.567 -0.0780 -0.5824 -0.5949
   92POPC  H11R12262   4.345   5.775   3.539 -1.2603 -1.6067 -1.6404
   92POPC  H11S12263   4.173   5.787   3.539 -0.2171 -0.1271 -1.1034
   92POPC  C21212264   4.267   5.865   3.720 -0.5818  0.2248 -0.1965
   92POPC  H12R12265   4.203   5.950   3.752  2.1400  2.6737 -0.8936
   92POPC  H12S12266   4.369   5.900   3.744 -0.8705  0.6038  0.4877
   92POPC  C21312267   4.234   5.748   3.808 -0.4405  0.0493  0.1025
   92POPC  H13R12268   4.292   5.656   3.788 -1.0174  0.1313 -2.3099
   92POPC  H13S12269   4.132   5.721   3.773  0.5064 -1.3651 -1.7847
   92POPC  C21412270   4.228   5.794   3.950  0.6474  0.3558 -0.3828
   92POPC  H14R12271   4.152   5.875   3.958  0.7014  0.6528 -2.4093
   92POPC  H14S12272   4.328   5.837   3.968  0.0455  0.4507  3.8260
   92POPC  C21512273   4.199   5.680   4.045  0.6776 -0.4772  0.3573
   92POPC  H15R12274   4.256   5.595   4.002  3.2053  1.8498 -1.2273
   92POPC  H15S12275   4.093   5.646   4.038  0.3578  0.7730 -1.4151
   92POPC  C21612276   4.235   5.696   4.192 -0.0286 -0.2206 -0.1386
   92POPC  H16R12277   4.343   5.675   4.201  0.0399  0.6893  1.3510
   92POPC  H16S12278   4.170   5.626   4.249  1.7388 -2.3810 -0.6697
   92POPC  C21712279   4.220   5.840   4.243 -0.3529 -0.0491  0.6114
   92POPC  H17R12280   4.111   5.853   4.225 -0.3083  1.5650  1.3128
   92POPC  H17S12281   4.276   5.908   4.176  0.7862 -1.2185  0.3344
   92POPC  C21812282   4.259   5.861   4.386  0.1885 -0.3341 -0.1784
   92POPC  H18R12283   4.241   5.965   4.420 -3.3866 -1.4342  1.9761
   92POPC  H18S12284   4.364   5.837   4.413  0.6865  2.9812  1.3137
   92POPC  H18T12285   4.191   5.801   4.451 -1.4582  0.0256 -1.4848
   92POPC   C3312286   4.338   4.948   2.609 -0.1037  0.3135  0.4952
   92POPC   H3X12287   4.382   4.855   2.566 -0.7199  0.2425 -0.0035
   92POPC   H3Y12288   4.266   4.978   2.531  0.2828  0.3666  0.1532
   92POPC   C3412289   4.272   4.913   2.746 -0.1401 -0.6512 -0.8193
   92POPC   H4X12290   4.223   4.815   2.730 -1.4896  0.3308 -3.1342
   92POPC   H4Y12291   4.187   4.982   2.763 -0.2825 -0.5190 -2.0015
   92POPC   C3512292   4.363   4.908   2.870  0.2386 -0.1761  0.1560
   92POPC   H5X12293   4.414   5.006   2.881  1.0711 -0.3691 -1.7024
   92POPC   H5Y12294   4.445   4.834   2.858  1.3253  1.3278 -2.6990
   92POPC   C3612295   4.280   4.879   2.995 -0.2849 -0.3314 -1.2970
   92POPC   H6X12296   4.218   4.787   2.993 -0.8176  0.0279 -1.3999
   92POPC   H6Y12297   4.210   4.963   3.013 -0.3001 -0.3494 -1.2711
   92POPC   C3712298   4.372   4.878   3.128  0.4472 -0.3415  0.1533
   92POPC   H7X12299   4.418   4.979   3.136 -0.5400  0.0436  1.4364
   92POPC   H7Y12300   4.449   4.802   3.104  1.0703  0.8911 -2.0642
   92POPC   C3812301   4.294   4.856   3.257  0.0053 -0.1899 -0.0172
   92POPC   H8X12302   4.365   4.847   3.342 -1.9609 -0.8865  1.6428
   92POPC   H8Y12303   4.260   4.751   3.251 -2.2583  0.5541 -3.3786
   92POPC   C3912304   4.189   4.960   3.304  0.0359 -0.8750  0.5696
   92POPC   H9X12305   4.135   4.990   3.211  1.3742 -2.8005 -0.9012
   92POPC   H9Y12306   4.237   5.052   3.344 -1.9784  0.8286 -0.6967
   92POPC  C31012307   4.111   4.924   3.429 -0.0040  0.6466  0.1212
   92POPC  H10X12308   4.052   4.835   3.399 -0.9613  0.6995  1.7484
   92POPC  H10Y12309   4.052   5.013   3.461  2.3482  3.1671 -2.0579
   92POPC  C31112310   4.189   4.879   3.553 -0.1123 -0.1207 -0.0204
   92POPC  H11X12311   4.259   4.956   3.593  0.4842 -0.4593 -0.4013
   92POPC  H11Y12312   4.255   4.795   3.521 -1.9266 -0.7843 -2.2496
   92POPC  C31212313   4.102   4.835   3.670  0.1476 -0.0013 -0.1702
   92POPC  H12X12314   4.013   4.771   3.650  0.4961 -0.6328  0.2663
   92POPC  H12Y12315   4.067   4.930   3.714 -0.0124  0.0508 -0.4056
   92POPC  C31312316   4.181   4.757   3.781  0.2634 -0.0834  0.1590
   92POPC  H13X12317   4.265   4.818   3.821  2.5440 -1.7304 -1.8412
   92POPC  H13Y12318   4.228   4.672   3.728  0.5338  0.1237  0.0591
   92POPC  C31412319   4.099   4.708   3.898  0.2644  0.2410 -0.0986
   92POPC  H14X12320   4.021   4.641   3.855 -0.7373 -0.6696  2.8578
   92POPC  H14Y12321   4.048   4.783   3.962 -1.4054 -0.1302 -0.9432
   92POPC  C31512322   4.176   4.626   4.000 -0.0318  0.0034 -0.2051
   92POPC  H15X12323   4.252   4.690   4.049  0.2289 -1.0466  0.7921
   92POPC  H15Y12324   4.225   4.544   3.944  2.0716  0.9565  0.1531
   92POPC  C31612325   4.081   4.575   4.113  0.0757  0.8224 -0.6783
   92POPC  H16X12326   3.987   4.538   4.066  0.1907  0.4539 -0.6209
   92POPC  H16Y12327   4.043   4.647   4.188 -1.1773  1.0502 -1.4924
   92POPC  H16Z12328   4.129   4.495   4.173 -0.9763  1.6737  1.4070
   93POPC     N12329   5.724   3.522   2.175  0.5100 -0.0098 -0.2566
   93POPC   C1212330   5.847   3.576   2.251  0.5224 -0.0514  0.4544
   93POPC  H12A12331   5.878   3.665   2.198 -0.0254 -0.1805 -0.0876
   93POPC  H12B12332   5.923   3.503   2.228 -0.7830 -0.9546 -1.1559
   93POPC   C1312333   5.752   3.467   2.044  0.4555 -0.5668 -0.0685
   93POPC  H13A12334   5.808   3.376   2.056 -0.7352 -1.4641 -1.0437
   93POPC  H13B12335   5.664   3.439   1.989  0.9792  0.1563 -1.3165
   93POPC  H13C12336   5.815   3.535   1.989  0.7806 -0.0501  0.9119
   93POPC   C1412337   5.645   3.425   2.252 -0.0001  0.3887  0.2157
   93POPC  H14A12338   5.563   3.385   2.194  1.2113 -1.0517 -0.5486
   93POPC  H14B12339   5.705   3.340   2.281 -0.5805 -0.3393 -0.6675
   93POPC  H14C12340   5.611   3.473   2.343  0.9831  0.3581  0.6074
   93POPC   C1512341   5.632   3.650   2.152  0.9401  0.4855  0.2347
   93POPC  H15A12342   5.599   3.687   2.248  0.0487  1.0877 -0.2954
   93POPC  H15B12343   5.536   3.634   2.106  1.7438 -1.3194 -0.9224
   93POPC  H15C12344   5.697   3.724   2.109  2.8726 -1.3908 -0.2839
   93POPC   C1112345   5.834   3.616   2.399  0.2261  0.4184  0.6724
   93POPC  H11A12346   5.934   3.656   2.423  0.1117  0.4176  1.1601
   93POPC  H11B12347   5.822   3.526   2.463  2.5649 -0.2563  0.2613
   93POPC     P12348   5.633   3.720   2.549 -0.5903  0.2112  0.1400
   93POPC   O1312349   5.539   3.607   2.543 -0.2429  0.2477  0.4759
   93POPC   O1412350   5.576   3.862   2.548 -0.4025 -0.1410  0.5325
   93POPC   O1212351   5.726   3.707   2.423 -0.8064 -0.2187 -0.7426
   93POPC   O1112352   5.736   3.707   2.667 -0.0824 -0.1056 -0.8623
   93POPC    C112353   5.726   3.592   2.746  0.0260  0.1034 -0.9196
   93POPC    HA12354   5.821   3.587   2.803 -0.5982  0.9579  0.2358
   93POPC    HB12355   5.725   3.498   2.687 -0.4805  0.9215 -2.2788
   93POPC    C212356   5.614   3.604   2.854  0.7824 -0.2182  0.3796
   93POPC    HS12357   5.527   3.574   2.792 -0.9313 -0.9414  2.9945
   93POPC   O2112358   5.596   3.737   2.907 -0.0113  0.2514  0.3803
   93POPC   C2112359   5.468   3.755   2.946 -0.4533 -0.5687  0.2107
   93POPC   O2212360   5.374   3.687   2.923  0.0840  0.7206 -0.1399
   93POPC   C2212361   5.464   3.884   3.026 -0.0467  0.1526 -0.3582
   93POPC   H2R12362   5.485   3.958   2.946  4.2050 -1.9443 -1.4365
   93POPC   H2S12363   5.546   3.895   3.100  0.5523  0.6453 -1.0757
   93POPC    C312364   5.640   3.496   2.963  0.4606 -0.5561  0.1290
   93POPC    HX12365   5.604   3.398   2.925 -1.1111  0.6015 -1.5550
   93POPC    HY12366   5.564   3.536   3.034 -0.3219 -0.2104 -0.8829
   93POPC   O3112367   5.764   3.505   3.032  0.1665 -0.7791  0.2241
   93POPC   C3112368   5.842   3.408   3.006 -1.1879 -0.0606 -1.2167
   93POPC   O3212369   5.811   3.301   2.953 -0.1044 -0.2208  1.0362
   93POPC   C3212370   5.981   3.425   3.069  0.2580 -0.4050 -0.5114
   93POPC   H2X12371   6.035   3.511   3.023 -0.9075  0.1853 -0.8222
   93POPC   H2Y12372   6.042   3.335   3.049  2.0559  0.8591 -1.0334
   93POPC   C2312373   5.334   3.899   3.105  0.0021  0.5859  0.1791
   93POPC   H3R12374   5.242   3.867   3.050  0.7260 -1.6824  0.1823
   93POPC   H3S12375   5.325   4.009   3.117  2.2246  1.0787 -1.9767
   93POPC   C2412376   5.343   3.838   3.241 -0.8051 -0.3184 -0.1184
   93POPC   H4R12377   5.247   3.855   3.294 -0.0614 -0.3026  1.2670
   93POPC   H4S12378   5.426   3.893   3.290 -0.5013 -0.9211  0.0534
   93POPC   C2512379   5.372   3.691   3.247  0.0940 -0.0320 -0.0554
   93POPC   H5R12380   5.475   3.667   3.215 -0.1870  0.2299 -1.2106
   93POPC   H5S12381   5.298   3.636   3.186 -1.7854  1.4372  0.7793
   93POPC   C2612382   5.353   3.644   3.395 -0.3114  0.6885 -0.2158
   93POPC   H6R12383   5.247   3.657   3.424 -0.2745  0.5966 -0.0354
   93POPC   H6S12384   5.420   3.705   3.459 -0.2351 -0.8482  1.2368
   93POPC   C2712385   5.393   3.497   3.415  0.4469 -0.0620 -0.4191
   93POPC   H7R12386   5.500   3.487   3.385  0.5906  0.3748 -0.0693
   93POPC   H7S12387   5.326   3.443   3.345  2.0892 -2.6758 -0.1015
   93POPC   C2812388   5.378   3.451   3.558 -0.2311  0.4990 -0.8928
   93POPC   H8R12389   5.274   3.420   3.578 -0.1218 -0.2013 -1.3573
   93POPC   H8S12390   5.402   3.541   3.619  0.3482  1.4248 -2.4177
   93POPC   C2912391   5.464   3.334   3.581 -0.2459 -0.5985  0.1688
   93POPC   H9112392   5.494   3.278   3.491  0.1454  0.4051 -0.3477
   93POPC  C21012393   5.526   3.291   3.693  0.8453 -0.0147  0.1632
   93POPC  H10112394   5.600   3.210   3.683  0.0079 -0.9293  1.0890
   93POPC  C21112395   5.491   3.331   3.830  0.5087 -0.1249  0.0489
   93POPC  H11R12396   5.413   3.266   3.875 -1.3592  2.7503  1.2867
   93POPC  H11S12397   5.447   3.433   3.840 -0.5190 -0.3998 -1.2908
   93POPC  C21212398   5.619   3.323   3.913 -0.5522 -0.4364  0.1730
   93POPC  H12R12399   5.700   3.388   3.873  2.2200 -3.4445  0.4238
   93POPC  H12S12400   5.653   3.217   3.905  0.3821 -0.1540  0.2467
   93POPC  C21312401   5.603   3.352   4.060 -0.1558 -0.4143  0.1579
   93POPC  H13R12402   5.549   3.276   4.121  1.2077 -0.4344  1.4183
   93POPC  H13S12403   5.554   3.449   4.082 -2.0362 -1.8644  3.0636
   93POPC  C21412404   5.739   3.352   4.129 -0.1558 -0.0883 -0.3659
   93POPC  H14R12405   5.797   3.435   4.083 -0.0777  0.0403 -0.0384
   93POPC  H14S12406   5.781   3.251   4.108  0.3551 -0.4860  2.2783
   93POPC  C21512407   5.752   3.387   4.275  0.1155  0.0352  0.2659
   93POPC  H15R12408   5.708   3.488   4.292  0.6382  0.4680 -0.8888
   93POPC  H15S12409   5.858   3.397   4.306  0.6297  0.9913 -1.6982
   93POPC  C21612410   5.687   3.284   4.378 -0.3955  0.2315  0.4143
   93POPC  H16R12411   5.756   3.198   4.378 -2.0231 -1.1382 -0.6901
   93POPC  H16S12412   5.591   3.250   4.331  0.0010 -2.5916  1.4616
   93POPC  C21712413   5.656   3.337   4.516  0.0070 -0.3836  0.5518
   93POPC  H17R12414   5.576   3.270   4.555  2.1144 -3.4898 -0.1370
   93POPC  H17S12415   5.619   3.442   4.518  0.8497 -0.0801  1.6369
   93POPC  C21812416   5.772   3.325   4.613  0.4998 -0.2158  0.1950
   93POPC  H18R12417   5.808   3.220   4.609  0.0895 -0.3225 -1.6487
   93POPC  H18S12418   5.737   3.347   4.716  1.9165  0.1247  0.6278
   93POPC  H18T12419   5.849   3.403   4.595  0.2221  0.4316  1.6070
   93POPC   C3312420   5.978   3.454   3.226  0.3935  0.3022  0.0386
   93POPC   H3X12421   5.941   3.555   3.254 -1.0623  0.5604 -2.4846
   93POPC   H3Y12422   6.082   3.446   3.263 -0.0058 -0.4298  1.0183
   93POPC   C3412423   5.897   3.345   3.304 -0.1661  0.5955  0.8758
   93POPC   H4X12424   5.939   3.246   3.278  0.1955  0.9600  0.0178
   93POPC   H4Y12425   5.794   3.335   3.263  0.3104 -1.7085  0.0756
   93POPC   C3512426   5.886   3.354   3.462 -0.0479  0.0803  0.5025
   93POPC   H5X12427   5.825   3.442   3.490  1.3338  0.4489  2.5915
   93POPC   H5Y12428   5.986   3.375   3.506 -0.4363  1.5365  0.7433
   93POPC   C3612429   5.828   3.224   3.528 -0.0432 -0.2996  0.5214
   93POPC   H6X12430   5.740   3.185   3.473 -0.8978  0.8563  1.0386
   93POPC   H6Y12431   5.797   3.235   3.634  1.5857  0.2814  0.9718
   93POPC   C3712432   5.908   3.097   3.527  0.2202  0.1672  0.7045
   93POPC   H7X12433   6.007   3.125   3.569 -0.2609  0.1861  1.8663
   93POPC   H7Y12434   5.923   3.047   3.429 -0.8456  2.5640 -0.7742
   93POPC   C3812435   5.847   2.982   3.617  0.5763  0.6280  0.1400
   93POPC   H8X12436   5.898   2.887   3.594  0.1650  1.0463 -2.8963
   93POPC   H8Y12437   5.740   2.963   3.594  0.8500  1.0368 -1.5699
   93POPC   C3912438   5.863   3.002   3.770 -0.4222  0.3053  0.2492
   93POPC   H9X12439   5.795   3.074   3.821  0.5800  0.1803  1.8217
   93POPC   H9Y12440   5.963   3.051   3.768  0.3739 -1.2370  0.7907
   93POPC  C31012441   5.876   2.872   3.857  0.0710 -0.1588 -0.1249
   93POPC  H10X12442   5.934   2.791   3.808  1.1642 -0.8185  2.0997
   93POPC  H10Y12443   5.771   2.841   3.875  0.8595 -1.8328  2.1682
   93POPC  C31112444   5.933   2.889   3.997  0.2343 -0.9202  0.4633
   93POPC  H11X12445   5.899   2.981   4.049 -0.1212 -0.0746 -1.2107
   93POPC  H11Y12446   6.040   2.903   3.972 -0.0305 -0.8240 -0.6650
   93POPC  C31212447   5.921   2.764   4.083 -0.0902 -0.9213 -0.0191
   93POPC  H12X12448   5.982   2.689   4.028  0.0526  1.0741 -2.8045
   93POPC  H12Y12449   5.813   2.739   4.086 -0.3814  0.3798  0.9431
   93POPC  C31312450   5.972   2.770   4.229  0.2695 -0.6944 -0.3263
   93POPC  H13X12451   6.075   2.811   4.224 -0.8961  2.4288 -0.9390
   93POPC  H13Y12452   5.976   2.667   4.269 -0.4925 -0.7877 -0.4786
   93POPC  C31412453   5.887   2.858   4.324  0.4673 -0.8818  0.9996
   93POPC  H14X12454   5.779   2.832   4.328  0.2580 -0.8413 -1.9735
   93POPC  H14Y12455   5.894   2.959   4.279  0.6029 -1.4069 -0.1894
   93POPC  C31512456   5.937   2.872   4.464 -0.2054  0.3940  0.6727
   93POPC  H15X12457   6.026   2.934   4.486 -0.1788  0.0089  1.7416
   93POPC  H15Y12458   5.971   2.768   4.482 -3.1300 -0.5548  1.2933
   93POPC  C31612459   5.834   2.906   4.567 -0.1837 -0.0042  0.2230
   93POPC  H16X12460   5.867   2.907   4.673 -2.7374  2.1314  1.1309
   93POPC  H16Y12461   5.746   2.838   4.564  1.1585 -1.8876  1.4043
   93POPC  H16Z12462   5.791   3.007   4.547 -2.1985 -0.8415  0.0721
   94POPC     N12463   2.327   5.799   2.259 -0.8691 -0.1733 -0.0341
   94POPC   C1212464   2.408   5.892   2.344 -0.0730  0.2447  0.2381
   94POPC  H12A12465   2.359   5.985   2.365 -0.9806  0.0213 -0.7934
   94POPC  H12B12466   2.493   5.928   2.287 -1.6012  0.5098 -1.9837
   94POPC   C1312467   2.415   5.682   2.233 -0.2929 -0.0703  0.1496
   94POPC  H13A12468   2.506   5.708   2.182  1.4562 -4.7305  0.4428
   94POPC  H13B12469   2.435   5.625   2.323  0.1908 -0.6296 -0.3104
   94POPC  H13C12470   2.357   5.616   2.170  1.4657  1.0294 -2.8065
   94POPC   C1412471   2.204   5.747   2.337 -0.1700 -0.5046  0.1136
   94POPC  H14A12472   2.154   5.663   2.290  1.2337 -1.1478 -0.2850
   94POPC  H14B12473   2.244   5.704   2.428  2.1193 -0.7193 -0.9327
   94POPC  H14C12474   2.142   5.834   2.351 -0.1922 -0.4188 -0.4877
   94POPC   C1512475   2.290   5.862   2.131  0.1481  1.0610  0.6252
   94POPC  H15A12476   2.241   5.958   2.141  0.5523  1.3944 -0.4297
   94POPC  H15B12477   2.215   5.804   2.080 -1.3370  1.3798  2.3261
   94POPC  H15C12478   2.377   5.877   2.069 -0.2602 -0.0603 -0.2493
   94POPC   C1112479   2.474   5.835   2.480 -0.2799 -0.1798 -0.4914
   94POPC  H11A12480   2.393   5.785   2.537 -0.4703  1.9028  1.1850
   94POPC  H11B12481   2.500   5.925   2.539  1.5441 -0.3035 -1.0562
   94POPC     P12482   2.736   5.796   2.458  0.3641  0.3190 -0.0092
   94POPC   O1312483   2.750   5.937   2.427  0.4621  0.4643 -0.9806
   94POPC   O1412484   2.810   5.701   2.375 -0.3820  0.2413 -0.2247
   94POPC   O1212485   2.587   5.747   2.454 -0.1446  0.3310  0.1023
   94POPC   O1112486   2.766   5.777   2.609  0.1590  0.1414  0.0989
   94POPC    C112487   2.845   5.669   2.664  0.5599 -0.5007 -0.7826
   94POPC    HA12488   2.843   5.574   2.606  0.0859 -1.3323  0.5539
   94POPC    HB12489   2.811   5.644   2.766  0.7925  0.8864 -0.3474
   94POPC    C212490   2.997   5.704   2.679  0.3766 -0.0529 -0.2711
   94POPC    HS12491   3.025   5.723   2.573 -2.0433  0.6542 -0.8460
   94POPC   O2112492   3.066   5.587   2.735 -0.2965 -0.8293 -0.5167
   94POPC   C2112493   3.196   5.593   2.740  0.0431  0.5128  0.2125
   94POPC   O2212494   3.266   5.681   2.691  0.0106 -0.5864 -0.2817
   94POPC   C2212495   3.254   5.466   2.806 -0.2034  0.5474 -0.0903
   94POPC   H2R12496   3.186   5.385   2.772  0.1855  0.0128  0.3928
   94POPC   H2S12497   3.254   5.480   2.916  3.9717 -1.2529  0.3220
   94POPC    C312498   3.018   5.830   2.772  0.5471 -0.1904 -0.4239
   94POPC    HX12499   2.981   5.917   2.714  0.7609 -1.0428 -1.8982
   94POPC    HY12500   3.127   5.837   2.795  0.7560  1.1377 -1.6371
   94POPC   O3112501   2.960   5.818   2.902  0.3882 -0.0499 -0.3820
   94POPC   C3112502   2.951   5.945   2.959  0.5567 -0.1225  0.6463
   94POPC   O3212503   2.990   6.049   2.904 -0.3388  0.1900  0.4106
   94POPC   C3212504   2.879   5.935   3.093 -0.3370  0.5403  0.2603
   94POPC   H2X12505   2.929   5.846   3.136  1.9497  1.2843 -0.6916
   94POPC   H2Y12506   2.771   5.926   3.067 -0.3910  3.1966 -0.7815
   94POPC   C2312507   3.399   5.446   2.747 -0.4009  0.1897  0.0584
   94POPC   H3R12508   3.455   5.542   2.747  1.4094 -0.7854 -1.2851
   94POPC   H3S12509   3.414   5.405   2.644  2.1054  0.8421  0.0929
   94POPC   C2412510   3.488   5.351   2.829  0.1471  0.2163 -0.2435
   94POPC   H4R12511   3.576   5.324   2.768 -1.3813 -2.7034 -1.3679
   94POPC   H4S12512   3.431   5.256   2.844  1.0569 -0.5667 -1.6068
   94POPC   C2512513   3.539   5.410   2.959 -0.3408 -0.4919 -0.8169
   94POPC   H5R12514   3.452   5.429   3.026  1.2399  0.0630  1.1740
   94POPC   H5S12515   3.583   5.510   2.940 -3.0088  1.0188  0.3775
   94POPC   C2612516   3.634   5.321   3.031  0.0716 -0.1539 -0.5346
   94POPC   H6R12517   3.714   5.284   2.964 -0.5507 -1.5247 -0.5469
   94POPC   H6S12518   3.567   5.238   3.062  1.3151 -1.0545 -0.2006
   94POPC   C2712519   3.698   5.403   3.148 -0.3500  0.0371 -0.1474
   94POPC   H7R12520   3.620   5.468   3.194  0.0241  0.7312 -0.4894
   94POPC   H7S12521   3.774   5.467   3.099 -1.5458  1.8222  0.1991
   94POPC   C2812522   3.758   5.306   3.258  0.3480 -0.1055  0.5405
   94POPC   H8R12523   3.850   5.262   3.214 -0.5462 -1.0329 -0.4399
   94POPC   H8S12524   3.692   5.219   3.277  1.2522 -0.4381  2.4073
   94POPC   C2912525   3.802   5.385   3.377 -0.6163 -0.9084 -0.3942
   94POPC   H9112526   3.910   5.406   3.378 -0.8737  0.4516  0.4405
   94POPC  C21012527   3.718   5.437   3.469  0.3897 -0.8144 -0.1723
   94POPC  H10112528   3.763   5.488   3.555 -1.4134 -1.3052  1.1262
   94POPC  C21112529   3.569   5.433   3.471 -0.0463 -0.4352 -0.5136
   94POPC  H11R12530   3.520   5.383   3.384  0.1601  0.3618 -1.1075
   94POPC  H11S12531   3.539   5.539   3.452 -0.3586 -0.2721  0.7926
   94POPC  C21212532   3.498   5.375   3.600  0.3904  0.1585 -0.4813
   94POPC  H12R12533   3.390   5.394   3.582 -0.0323 -1.7783 -0.2317
   94POPC  H12S12534   3.531   5.438   3.685 -2.1904  2.0239 -0.7544
   94POPC  C21312535   3.517   5.220   3.631  0.3954 -0.0461 -0.1460
   94POPC  H13R12536   3.626   5.208   3.651  0.2305  0.5035  1.2296
   94POPC  H13S12537   3.493   5.153   3.547 -0.9654 -2.3335  1.9266
   94POPC  C21412538   3.429   5.171   3.744  1.1013 -0.9419 -0.2214
   94POPC  H14R12539   3.435   5.237   3.833  1.2659 -0.6327 -0.4634
   94POPC  H14S12540   3.449   5.063   3.761  1.0519 -0.9440 -0.1773
   94POPC  C21512541   3.273   5.179   3.702 -0.4009 -0.0572 -0.3413
   94POPC  H15R12542   3.266   5.118   3.609  1.4934 -0.4878 -0.2476
   94POPC  H15S12543   3.241   5.284   3.685  2.6126  1.5275  2.6729
   94POPC  C21612544   3.185   5.122   3.813  0.0231  0.0051 -0.1272
   94POPC  H16R12545   3.168   5.203   3.887 -1.7555 -0.2729 -0.1915
   94POPC  H16S12546   3.241   5.042   3.866 -0.2043 -2.4100 -3.1996
   94POPC  C21712547   3.048   5.071   3.768 -0.5783  0.4824  0.7285
   94POPC  H17R12548   3.049   4.990   3.692  1.6641  0.1372  1.0666
   94POPC  H17S12549   2.999   5.162   3.727  0.2071  0.5209 -0.1372
   94POPC  C21812550   2.956   5.022   3.883 -1.1517  0.5963 -0.1405
   94POPC  H18R12551   2.949   5.108   3.952  0.2121  0.6862 -0.0954
   94POPC  H18S12552   2.997   4.932   3.933 -2.8270 -0.4284 -0.5409
   94POPC  H18T12553   2.856   4.990   3.847 -0.7656 -1.7351  0.6859
   94POPC   C3312554   2.915   6.063   3.173  0.3467 -0.2737 -0.2894
   94POPC   H3X12555   2.885   6.146   3.106  0.8459 -0.5961 -0.9246
   94POPC   H3Y12556   3.025   6.069   3.191  0.2292  2.0740 -0.0657
   94POPC   C3412557   2.864   6.063   3.313  0.3066 -0.4452 -0.1037
   94POPC   H4X12558   2.917   6.148   3.362  0.6131 -2.0587  2.5965
   94POPC   H4Y12559   2.898   5.967   3.359 -0.3654  0.4523  2.4513
   94POPC   C3512560   2.717   6.071   3.333  0.3849 -0.3375 -1.2688
   94POPC   H5X12561   2.674   5.985   3.277 -1.3331 -2.1308  2.4454
   94POPC   H5Y12562   2.677   6.157   3.275 -1.2603 -0.9960 -1.1563
   94POPC   C3612563   2.670   6.087   3.476 -0.3138  0.0464 -0.4224
   94POPC   H6X12564   2.707   6.004   3.541 -1.8044  0.9840  1.7304
   94POPC   H6Y12565   2.560   6.093   3.470 -0.3011 -0.7055 -1.5678
   94POPC   C3712566   2.721   6.216   3.538 -0.0722  0.0930  0.3825
   94POPC   H7X12567   2.678   6.306   3.490  2.8871  0.4830 -1.8669
   94POPC   H7Y12568   2.832   6.226   3.532 -0.1654  1.4853  0.4798
   94POPC   C3812569   2.704   6.218   3.692 -0.4344 -0.2317 -0.1372
   94POPC   H8X12570   2.782   6.154   3.738  0.4175  0.6397 -0.3457
   94POPC   H8Y12571   2.604   6.174   3.716 -0.6403  1.6003  2.8632
   94POPC   C3912572   2.714   6.362   3.742  0.1850  0.4517  0.1230
   94POPC   H9X12573   2.630   6.417   3.695  0.2218  0.7618  0.4138
   94POPC   H9Y12574   2.808   6.405   3.699  1.4468 -3.2146 -1.1559
   94POPC  C31012575   2.700   6.382   3.897  0.5306  0.2356 -0.2159
   94POPC  H10X12576   2.767   6.316   3.957 -1.5243  0.3248  2.3473
   94POPC  H10Y12577   2.594   6.352   3.907  0.3372 -0.0029 -2.4784
   94POPC  C31112578   2.725   6.528   3.946 -0.0686  0.5957  0.4862
   94POPC  H11X12579   2.641   6.588   3.905 -0.0701  0.0063 -0.3901
   94POPC  H11Y12580   2.817   6.572   3.902  1.0362 -0.5278  1.5706
   94POPC  C31212581   2.720   6.553   4.093  0.2224 -0.0080  0.5383
   94POPC  H12X12582   2.805   6.506   4.148 -0.0778  2.6997  3.6311
   94POPC  H12Y12583   2.629   6.502   4.132 -0.8390  0.0601 -1.7057
   94POPC  C31312584   2.729   6.696   4.139  0.3073 -0.0710  0.5653
   94POPC  H13X12585   2.752   6.758   4.050  4.0223  1.2317  2.2032
   94POPC  H13Y12586   2.832   6.714   4.178  0.2827  2.5989 -0.3596
   94POPC  C31412587   2.622   6.748   4.235 -0.2604 -0.8788  0.0031
   94POPC  H14X12588   2.644   6.696   4.331  2.9375 -1.1110 -0.7606
   94POPC  H14Y12589   2.518   6.721   4.203  0.8114 -0.3127 -4.7116
   94POPC  C31512590   2.643   6.899   4.262  0.9207  0.1703  0.0405
   94POPC  H15X12591   2.652   6.962   4.171  2.0948 -1.5557 -1.0825
   94POPC  H15Y12592   2.740   6.912   4.315  1.6878  2.2178 -1.6854
   94POPC  C31612593   2.525   6.957   4.351  0.0311 -0.5643 -0.6963
   94POPC  H16X12594   2.552   7.060   4.381 -1.7127 -0.4403  0.6090
   94POPC  H16Y12595   2.509   6.903   4.447  1.4972 -0.5503 -0.4167
   94POPC  H16Z12596   2.432   6.952   4.291  0.1444 -0.1661 -0.9091
   95POPC     N12597   1.390   2.291   1.905 -0.2281  0.3698 -0.2569
   95POPC   C1212598   1.312   2.269   2.030 -1.0215  0.5935 -0.2770
   95POPC  H12A12599   1.340   2.340   2.106 -0.3475 -2.6876  2.8271
   95POPC  H12B12600   1.333   2.171   2.071 -1.5313 -0.0167 -1.4132
   95POPC   C1312601   1.347   2.432   1.848  0.6284  0.7660  0.1527
   95POPC  H13A12602   1.240   2.442   1.849  0.4433 -0.8182 -0.4263
   95POPC  H13B12603   1.392   2.509   1.909  4.7254 -1.2235  0.0037
   95POPC  H13C12604   1.369   2.445   1.743 -0.4567 -0.7721 -0.3081
   95POPC   C1412605   1.535   2.304   1.929  0.6453 -0.2298  0.3689
   95POPC  H14A12606   1.579   2.210   1.957  0.0376 -0.6313 -0.0093
   95POPC  H14B12607   1.591   2.332   1.841  0.9868 -0.0356  0.6482
   95POPC  H14C12608   1.561   2.374   2.007  0.6467 -1.3962  1.4526
   95POPC   C1512609   1.368   2.193   1.799 -0.1233  0.2825  0.0333
   95POPC  H15A12610   1.441   2.201   1.719 -0.0084 -2.2836 -0.1887
   95POPC  H15B12611   1.267   2.200   1.763 -0.7601  1.0507  1.8517
   95POPC  H15C12612   1.391   2.094   1.835  1.0741  0.0553 -1.2658
   95POPC   C1112613   1.162   2.270   2.021  0.3234 -0.3657 -0.0366
   95POPC  H11A12614   1.139   2.375   1.991  1.8644 -0.3871 -1.4305
   95POPC  H11B12615   1.125   2.256   2.125  1.8942  1.9932  0.9224
   95POPC     P12616   1.096   2.025   1.960  0.0002  0.0163  0.1400
   95POPC   O1312617   1.214   1.960   1.904  0.1995 -0.9865  0.0271
   95POPC   O1412618   0.967   1.973   1.915 -0.0278 -0.5752 -0.3520
   95POPC   O1212619   1.104   2.181   1.927  0.6243 -0.2229 -0.3153
   95POPC   O1112620   1.112   2.009   2.116  0.6283  0.0989 -0.3646
   95POPC    C112621   1.009   1.955   2.193  0.3819  0.0964 -0.0627
   95POPC    HA12622   1.046   1.925   2.294 -0.2884 -1.2390 -0.1979
   95POPC    HB12623   0.958   1.870   2.144 -0.1158 -1.0381  2.2653
   95POPC    C212624   0.891   2.056   2.232  0.5208  0.0948 -0.0664
   95POPC    HS12625   0.858   2.083   2.130 -0.9255 -0.6542  0.1702
   95POPC   O2112626   0.952   2.160   2.305 -0.0701  0.7408  0.4389
   95POPC   C2112627   0.884   2.275   2.289 -1.0513  0.1665 -0.1952
   95POPC   O2212628   0.799   2.294   2.205  0.0428 -0.6621 -0.2139
   95POPC   C2212629   0.943   2.380   2.379  0.4449  0.0924  0.0097
   95POPC   H2R12630   1.004   2.454   2.324  1.3359 -1.4284 -1.1336
   95POPC   H2S12631   1.006   2.338   2.460  1.9391  1.6104 -0.3309
   95POPC    C312632   0.775   1.989   2.312  0.2751  0.0485  0.4109
   95POPC    HX12633   0.822   1.959   2.408  0.5241  2.8582  1.2566
   95POPC    HY12634   0.741   1.895   2.262  0.4947  0.0288  0.2960
   95POPC   O3112635   0.665   2.074   2.328  0.0805  0.4185 -0.2794
   95POPC   C3112636   0.557   2.013   2.378  0.4624 -0.6866 -0.1133
   95POPC   O3212637   0.557   1.897   2.415 -0.0502  0.2016  0.2207
   95POPC   C3212638   0.440   2.109   2.396  0.1787 -0.0048  0.0579
   95POPC   H2X12639   0.425   2.160   2.299  2.8289  2.5674  0.8510
   95POPC   H2Y12640   0.452   2.189   2.473 -1.3498  1.7291 -1.4015
   95POPC   C2312641   0.836   2.465   2.455  0.0776 -0.5686  0.0539
   95POPC   H3R12642   0.750   2.477   2.386  0.2773  0.1146 -0.0874
   95POPC   H3S12643   0.882   2.565   2.473  2.1026 -1.1956 -1.3206
   95POPC   C2412644   0.783   2.409   2.587  0.1288  0.2720  0.3572
   95POPC   H4R12645   0.697   2.470   2.622 -0.2485  0.4299 -0.7956
   95POPC   H4S12646   0.859   2.409   2.668 -1.0316 -1.9192  1.5161
   95POPC   C2512647   0.741   2.262   2.579 -0.6116 -0.6422 -0.0237
   95POPC   H5R12648   0.827   2.200   2.544  0.0510 -0.3354  1.0229
   95POPC   H5S12649   0.662   2.247   2.502  0.7052 -0.7857 -1.4112
   95POPC   C2612650   0.680   2.200   2.713  0.1147 -0.2039  0.2834
   95POPC   H6R12651   0.660   2.093   2.691  0.0624 -0.4600  1.5049
   95POPC   H6S12652   0.581   2.249   2.721  0.0232 -0.1119 -1.0883
   95POPC   C2712653   0.769   2.226   2.833 -0.2432  0.1212 -0.4275
   95POPC   H7R12654   0.775   2.337   2.835  1.3001  0.0933 -1.4914
   95POPC   H7S12655   0.872   2.187   2.820  0.3970  1.3531  0.7035
   95POPC   C2812656   0.710   2.185   2.966 -0.3399  0.6850  0.7191
   95POPC   H8R12657   0.612   2.237   2.970  0.1092  1.4810  3.6256
   95POPC   H8S12658   0.780   2.229   3.040  0.6314 -0.2526  0.3814
   95POPC   C2912659   0.693   2.032   2.981 -0.5180  0.0003 -0.1010
   95POPC   H9112660   0.678   1.973   2.889  2.5552 -1.4674  0.2022
   95POPC  C21012661   0.708   1.959   3.090 -0.3371 -0.0647  0.2813
   95POPC  H10112662   0.677   1.854   3.097 -0.9135  0.1749  1.5757
   95POPC  C21112663   0.739   2.018   3.222 -0.2520 -0.2796 -0.1173
   95POPC  H11R12664   0.818   2.094   3.205  2.1948 -2.7881 -0.5125
   95POPC  H11S12665   0.779   1.937   3.286 -3.2736 -0.4925  1.7008
   95POPC  C21212666   0.622   2.092   3.283 -0.2419 -0.2405  0.5101
   95POPC  H12R12667   0.533   2.026   3.273  0.0590 -0.3081 -3.0152
   95POPC  H12S12668   0.607   2.186   3.226 -0.6317 -1.2364 -1.1101
   95POPC  C21312669   0.644   2.124   3.429 -0.4247  0.8483  0.3179
   95POPC  H13R12670   0.683   2.042   3.492 -1.3274 -0.7690 -1.1588
   95POPC  H13S12671   0.541   2.153   3.457 -1.3720 -0.8618 -1.1873
   95POPC  C21412672   0.731   2.251   3.444  0.8066  0.0325  0.0214
   95POPC  H14R12673   0.682   2.324   3.376  1.2306 -0.0913 -0.4288
   95POPC  H14S12674   0.830   2.234   3.396  0.0717  1.5127 -2.1543
   95POPC  C21512675   0.753   2.295   3.587 -0.7126 -0.0455 -0.0551
   95POPC  H15R12676   0.771   2.216   3.662 -3.9457  1.1251  2.1459
   95POPC  H15S12677   0.673   2.358   3.632  0.9133  2.4574 -0.4581
   95POPC  C21612678   0.875   2.396   3.586  1.3374  0.2124 -0.2252
   95POPC  H16R12679   0.849   2.488   3.528  0.4955 -0.3253 -0.7272
   95POPC  H16S12680   0.973   2.362   3.548  2.0966  1.8323  0.2026
   95POPC  C21712681   0.897   2.456   3.726  0.3775 -0.4731 -0.4086
   95POPC  H17R12682   0.931   2.381   3.800  0.3334  0.5378  0.6649
   95POPC  H17S12683   0.800   2.492   3.769  0.7507  1.0531 -0.7710
   95POPC  C21812684   1.005   2.569   3.722 -0.1350  0.0170  0.3728
   95POPC  H18R12685   1.090   2.549   3.652 -0.3272 -1.4840  0.5217
   95POPC  H18S12686   1.054   2.587   3.820  2.2967  1.4681 -0.9977
   95POPC  H18T12687   0.952   2.662   3.694 -0.4609 -0.8423 -2.1251
   95POPC   C3312688   0.311   2.038   2.443 -0.2485 -0.3881 -0.0940
   95POPC   H3X12689   0.281   1.959   2.371 -1.4345  0.5465 -0.6534
   95POPC   H3Y12690   0.226   2.109   2.442 -0.1693 -0.2442 -2.8825
   95POPC   C3412691   0.325   1.982   2.580  0.0959  0.1261  0.5963
   95POPC   H4X12692   0.427   1.959   2.615 -0.2536 -0.8355  1.0092
   95POPC   H4Y12693   0.278   1.882   2.590 -1.0974  0.4514 -1.1504
   95POPC   C3512694   0.268   2.078   2.689  0.1485 -0.0796 -0.9655
   95POPC   H5X12695   0.157   2.088   2.691  0.1749  0.1258 -0.4657
   95POPC   H5Y12696   0.298   2.181   2.661 -1.1166 -0.0154 -2.2134
   95POPC   C3612697   0.315   2.034   2.830  1.2940  0.0589 -0.2779
   95POPC   H6X12698   0.418   2.073   2.844  1.1459  1.4039 -2.3713
   95POPC   H6Y12699   0.315   1.923   2.823  1.1071  0.1209 -1.6440
   95POPC   C3712700   0.223   2.096   2.942  0.0075 -0.3004  0.7216
   95POPC   H7X12701   0.127   2.043   2.924 -0.1501  0.1674  0.1318
   95POPC   H7Y12702   0.207   2.206   2.936  1.5280 -0.0444  1.0141
   95POPC   C3812703   0.268   2.058   3.086  0.0280  0.0581 -0.4349
   95POPC   H8X12704   0.368   2.090   3.122 -0.5555 -0.6098  2.0269
   95POPC   H8Y12705   0.259   1.947   3.090 -1.6881  0.2080  1.7255
   95POPC   C3912706   0.175   2.107   3.190  0.5790  0.2265 -0.1605
   95POPC   H9X12707   0.081   2.049   3.178  0.3026  1.0287 -2.3273
   95POPC   H9Y12708   0.145   2.213   3.184  2.2577  0.9308  2.4648
   95POPC  C31012709   0.227   2.083   3.334  0.2339  0.0506  0.0174
   95POPC  H10X12710   0.154   2.120   3.409  0.0584 -0.8121  0.2822
   95POPC  H10Y12711   0.318   2.144   3.355 -0.2153  0.7360 -0.0148
   95POPC  C31112712   0.250   1.936   3.368  0.2920 -0.0063 -0.0191
   95POPC  H11X12713   0.332   1.891   3.307 -1.0447 -4.0053  0.8628
   95POPC  H11Y12714   0.156   1.879   3.354 -1.9342  2.7881  2.4017
   95POPC  C31212715   0.288   1.937   3.517  0.0590  0.2717  0.7185
   95POPC  H12X12716   0.205   1.991   3.567 -1.0655 -1.6765  1.0316
   95POPC  H12Y12717   0.374   2.007   3.525 -0.0686  0.5234 -0.0181
   95POPC  C31312718   0.318   1.795   3.562  0.4163  0.1131 -0.4922
   95POPC  H13X12719   0.364   1.735   3.481  1.6827  0.5924 -0.1375
   95POPC  H13Y12720   0.220   1.751   3.591 -0.2737  1.6261 -0.4385
   95POPC  C31412721   0.409   1.791   3.689  0.9384 -0.7484  0.1154
   95POPC  H14X12722   0.366   1.854   3.770  0.8360 -0.6471 -0.0161
   95POPC  H14Y12723   0.507   1.838   3.665 -0.0819  0.4401 -1.9958
   95POPC  C31512724   0.407   1.650   3.731 -0.6555 -0.9411 -0.0060
   95POPC  H15X12725   0.420   1.602   3.631 -0.2124  0.2312 -0.5293
   95POPC  H15Y12726   0.312   1.624   3.782 -0.8515 -0.3105 -0.0334
   95POPC  C31612727   0.523   1.608   3.821  0.2145  0.0418  0.1520
   95POPC  H16X12728   0.618   1.649   3.782 -0.3561  1.7901  0.5135
   95POPC  H16Y12729   0.530   1.497   3.824  0.7866  0.0689 -0.0535
   95POPC  H16Z12730   0.509   1.646   3.924  0.5297 -0.5834  0.4329
   96POPC     N12731   5.908   4.164   2.460 -0.3900  0.4591  0.0402
   96POPC   C1212732   5.896   4.280   2.559  0.1624  0.1277  0.5916
   96POPC  H12A12733   5.989   4.334   2.572 -0.3206  0.6105  2.2642
   96POPC  H12B12734   5.870   4.233   2.653  0.4558 -0.4892  0.3742
   96POPC   C1312735   5.910   4.211   2.313 -0.2960  0.0491 -0.5962
   96POPC  H13A12736   5.916   4.124   2.249 -1.8876 -0.1699 -0.4777
   96POPC  H13B12737   5.815   4.261   2.304 -0.5557  0.1011  1.7634
   96POPC  H13C12738   5.987   4.282   2.289 -0.2503  0.1601 -0.1237
   96POPC   C1412739   6.026   4.079   2.481 -0.6043 -0.4136  0.5632
   96POPC  H14A12740   6.027   3.997   2.411 -2.1774 -0.7809  0.9370
   96POPC  H14B12741   6.122   4.129   2.474 -0.9648  0.1005 -0.9158
   96POPC  H14C12742   6.018   4.035   2.580 -0.9285  1.3318  1.3420
   96POPC   C1512743   5.789   4.079   2.476 -0.0162  0.7841 -0.4369
   96POPC  H15A12744   5.701   4.132   2.442  0.0417  0.0914 -1.7137
   96POPC  H15B12745   5.783   4.045   2.579  1.2446  0.9813 -0.2883
   96POPC  H15C12746   5.802   3.985   2.424 -0.1569  0.2044  0.5443
   96POPC   C1112747   5.787   4.384   2.532  0.4986  0.0107 -0.6507
   96POPC  H11A12748   5.774   4.445   2.624 -3.7647 -1.4539 -0.0207
   96POPC  H11B12749   5.691   4.328   2.528  0.7093 -0.3957 -0.1399
   96POPC     P12750   5.695   4.556   2.369  0.0835  0.1198 -0.3330
   96POPC   O1312751   5.598   4.478   2.283 -0.2211 -0.1540 -0.0549
   96POPC   O1412752   5.755   4.684   2.312  0.9563 -0.0273 -0.0201
   96POPC   O1212753   5.812   4.464   2.417 -0.7722 -0.2799  0.2617
   96POPC   O1112754   5.620   4.585   2.501  0.7646 -0.4394  0.1336
   96POPC    C112755   5.665   4.703   2.578 -0.8248  0.0855 -0.5761
   96POPC    HA12756   5.688   4.791   2.514  2.3556 -1.6955 -2.1706
   96POPC    HB12757   5.759   4.680   2.633 -1.5512  0.5897  0.9318
   96POPC    C212758   5.559   4.743   2.681  0.5294 -0.2132 -0.0174
   96POPC    HS12759   5.622   4.806   2.747 -1.8921  1.6196  0.6602
   96POPC   O2112760   5.519   4.635   2.764  0.0704  0.4448  0.7554
   96POPC   C2112761   5.616   4.585   2.840  0.1792 -1.2058 -0.8812
   96POPC   O2212762   5.726   4.632   2.865  0.2043  0.0122 -0.0863
   96POPC   C2212763   5.566   4.455   2.899  0.5502 -0.4747 -0.3639
   96POPC   H2R12764   5.563   4.393   2.807 -2.2455 -0.4319 -0.3893
   96POPC   H2S12765   5.458   4.459   2.923  1.1026 -2.1531  3.1145
   96POPC    C312766   5.439   4.820   2.629  0.4763  0.6635  0.1992
   96POPC    HX12767   5.391   4.771   2.542  0.7042  0.9166 -0.0704
   96POPC    HY12768   5.484   4.912   2.585  0.9498 -0.9769 -2.9817
   96POPC   O3112769   5.352   4.860   2.733  0.5418 -0.4142 -0.3967
   96POPC   C3112770   5.251   4.769   2.759 -0.2048 -0.4014  0.4115
   96POPC   O3212771   5.242   4.663   2.702 -0.1294  0.2205  0.9313
   96POPC   C3212772   5.172   4.821   2.880  0.3526 -0.7803  0.1144
   96POPC   H2X12773   5.168   4.928   2.851  0.8855 -0.2133  2.0044
   96POPC   H2Y12774   5.235   4.813   2.971 -0.7310  0.5136  1.0181
   96POPC   C2312775   5.643   4.391   3.020 -0.6135 -0.3311  0.2839
   96POPC   H3R12776   5.639   4.465   3.103 -0.7336  0.1873 -0.1796
   96POPC   H3S12777   5.750   4.375   2.997 -0.8331  0.3304 -1.3864
   96POPC   C2412778   5.590   4.260   3.075  0.0651  0.6711 -0.5396
   96POPC   H4R12779   5.620   4.184   3.000 -1.1736  0.6346 -1.0191
   96POPC   H4S12780   5.479   4.251   3.081  0.1223 -0.0123 -0.4073
   96POPC   C2512781   5.655   4.228   3.219 -0.0566  0.1766  0.2337
   96POPC   H5R12782   5.756   4.274   3.229  0.6915 -1.3204 -0.1576
   96POPC   H5S12783   5.659   4.117   3.223 -0.6859  0.1131 -0.6044
   96POPC   C2612784   5.567   4.276   3.328 -0.3739 -0.4218 -0.0405
   96POPC   H6R12785   5.465   4.236   3.310 -1.0683  1.8647 -1.7602
   96POPC   H6S12786   5.560   4.387   3.322 -1.3860 -0.4626  0.2421
   96POPC   C2712787   5.615   4.232   3.468  0.6094  0.3129  0.5048
   96POPC   H7R12788   5.589   4.316   3.536  1.1764  0.4711  0.5274
   96POPC   H7S12789   5.726   4.234   3.472  0.8166  0.1672 -2.6289
   96POPC   C2812790   5.564   4.095   3.509 -0.4795 -0.5166  0.5586
   96POPC   H8R12791   5.628   4.016   3.466 -0.7428 -1.6068  2.0762
   96POPC   H8S12792   5.462   4.086   3.467 -0.6123 -1.3805  1.0404
   96POPC   C2912793   5.546   4.101   3.659 -0.6911 -0.4387 -0.3703
   96POPC   H9112794   5.493   4.184   3.708  0.0177  0.0563 -0.4244
   96POPC  C21012795   5.604   4.014   3.739 -0.0875 -0.1906 -0.2993
   96POPC  H10112796   5.573   4.009   3.844 -0.4282 -1.9848 -0.4584
   96POPC  C21112797   5.697   3.901   3.696 -0.4072  0.2261  0.3643
   96POPC  H11R12798   5.739   3.906   3.594 -1.4165 -0.8303 -0.1316
   96POPC  H11S12799   5.641   3.805   3.687 -0.1775  0.2055 -0.9765
   96POPC  C21212800   5.821   3.877   3.786 -0.5927 -0.0075 -0.3700
   96POPC  H12R12801   5.890   3.963   3.797  0.1661 -0.8659  3.1028
   96POPC  H12S12802   5.871   3.790   3.739  0.6455  0.5774 -0.1589
   96POPC  C21312803   5.784   3.839   3.926  0.9120 -0.6999 -0.0202
   96POPC  H13R12804   5.703   3.764   3.927 -0.1323  0.3899 -0.0393
   96POPC  H13S12805   5.754   3.930   3.983  1.3951  1.1251 -2.5247
   96POPC  C21412806   5.909   3.797   3.995  0.1832  0.1093 -0.0445
   96POPC  H14R12807   5.988   3.875   3.992 -0.9100  1.4112  2.4068
   96POPC  H14S12808   5.948   3.705   3.947 -1.4441 -1.4824  1.5108
   96POPC  C21512809   5.887   3.767   4.141  0.0779  0.4002  0.5502
   96POPC  H15R12810   5.799   3.699   4.144 -0.0932  0.3494 -2.4589
   96POPC  H15S12811   5.847   3.859   4.191 -2.5687 -0.4231  0.1096
   96POPC  C21612812   6.000   3.691   4.208 -0.6391  0.6698 -0.2930
   96POPC  H16R12813   6.089   3.750   4.181 -0.7773  0.8593 -0.3341
   96POPC  H16S12814   6.008   3.598   4.147  0.5503 -0.2676  1.2350
   96POPC  C21712815   5.985   3.658   4.357  0.8937 -0.2219 -0.1354
   96POPC  H17R12816   6.056   3.578   4.386 -0.5006 -1.4885 -0.1001
   96POPC  H17S12817   5.883   3.620   4.378  0.6315  1.0912  1.1211
   96POPC  C21812818   6.013   3.776   4.450  0.0220 -0.0672 -0.7123
   96POPC  H18R12819   6.017   3.745   4.556 -2.2676 -2.6317 -1.2661
   96POPC  H18S12820   5.922   3.840   4.449  1.6547  2.3983  0.0228
   96POPC  H18T12821   6.097   3.836   4.408 -0.6667 -0.4615 -2.8039
   96POPC   C3312822   5.021   4.774   2.889 -1.0340 -0.0136  0.0941
   96POPC   H3X12823   5.019   4.668   2.856 -1.5985  0.5861 -1.9422
   96POPC   H3Y12824   4.944   4.826   2.827  2.0892  2.5854 -2.0171
   96POPC   C3412825   4.964   4.769   3.030 -0.3240  0.4180  0.6914
   96POPC   H4X12826   5.042   4.735   3.102  1.1337  1.0645 -0.5247
   96POPC   H4Y12827   4.872   4.707   3.029 -0.8935  1.1233  2.7319
   96POPC   C3512828   4.900   4.903   3.086 -0.2024  0.3248  0.5788
   96POPC   H5X12829   4.804   4.927   3.036 -0.1131  1.6598  1.0058
   96POPC   H5Y12830   4.970   4.989   3.077  0.0806  0.5601  3.6863
   96POPC   C3612831   4.867   4.883   3.238 -0.6402  0.2822  0.1881
   96POPC   H6X12832   4.849   4.977   3.294  0.5463 -1.9748  4.7749
   96POPC   H6Y12833   4.956   4.845   3.291 -0.0821  0.3706 -0.6728
   96POPC   C3712834   4.752   4.786   3.267  0.0108  0.6364  0.5442
   96POPC   H7X12835   4.766   4.701   3.197  1.7171  1.4397 -0.1461
   96POPC   H7Y12836   4.658   4.843   3.252 -0.9652 -0.9869  0.2481
   96POPC   C3812837   4.759   4.755   3.413  0.5365 -0.4490 -0.4676
   96POPC   H8X12838   4.761   4.846   3.477  2.7934 -1.4770  1.0540
   96POPC   H8Y12839   4.852   4.703   3.443  0.0083 -1.4133 -0.4354
   96POPC   C3912840   4.645   4.662   3.461  0.9923 -0.5382  0.1086
   96POPC   H9X12841   4.650   4.568   3.401 -1.9057  0.1275 -1.3444
   96POPC   H9Y12842   4.548   4.712   3.440  2.1960  0.8592 -2.6289
   96POPC  C31012843   4.642   4.627   3.611 -0.3428 -0.0339  0.4684
   96POPC  H10X12844   4.642   4.719   3.673 -0.7241  0.0845  0.2924
   96POPC  H10Y12845   4.735   4.569   3.628 -0.4631 -0.5338 -0.5108
   96POPC  C31112846   4.524   4.531   3.658 -0.2935  0.2224 -0.3872
   96POPC  H11X12847   4.526   4.436   3.600 -2.2485 -0.6442  0.8747
   96POPC  H11Y12848   4.426   4.581   3.651 -1.5506 -2.1043 -0.4900
   96POPC  C31212849   4.541   4.497   3.810  0.3899  0.7760  0.4694
   96POPC  H12X12850   4.637   4.442   3.811 -0.0889 -0.0929  1.9325
   96POPC  H12Y12851   4.462   4.427   3.846  1.9018 -2.2993 -1.7078
   96POPC  C31312852   4.553   4.610   3.909  0.2720 -0.3781 -0.2207
   96POPC  H13X12853   4.474   4.687   3.899  1.1982  0.7856  0.9592
   96POPC  H13Y12854   4.648   4.665   3.890 -0.8562  0.9741 -2.3149
   96POPC  C31412855   4.543   4.563   4.054 -0.4907 -0.4050  0.7326
   96POPC  H14X12856   4.438   4.529   4.069 -0.8399  0.1094 -0.4013
   96POPC  H14Y12857   4.553   4.650   4.122  0.4005 -0.6769  0.9596
   96POPC  C31512858   4.653   4.466   4.095  0.4690  0.1001  0.0006
   96POPC  H15X12859   4.752   4.502   4.060  0.6741  0.9924  1.4127
   96POPC  H15Y12860   4.636   4.371   4.041 -0.2489  0.3780 -0.2733
   96POPC  C31612861   4.673   4.450   4.247 -0.0304 -0.4851  0.1347
   96POPC  H16X12862   4.714   4.538   4.301 -1.0791 -1.2372  2.2873
   96POPC  H16Y12863   4.737   4.359   4.258 -0.8495 -0.9192  1.6084
   96POPC  H16Z12864   4.578   4.421   4.297  0.6731 -1.7278  0.7984
   97POPC     N12865   2.318   0.827   2.259 -0.2303 -0.7203  0.3246
   97POPC   C1212866   2.263   0.788   2.390 -0.0274 -0.2377 -0.8431
   97POPC  H12A12867   2.161   0.756   2.375 -1.7587  3.3961  1.6926
   97POPC  H12B12868   2.266   0.874   2.455 -1.9889  1.1663 -2.4903
   97POPC   C1312869   2.310   0.713   2.169  0.5907 -0.4009  0.2868
   97POPC  H13A12870   2.209   0.673   2.166  0.6594 -0.5358 -0.3009
   97POPC  H13B12871   2.335   0.732   2.066  0.0926  1.2577  0.4350
   97POPC  H13C12872   2.361   0.632   2.218 -0.3600 -1.4098 -0.3452
   97POPC   C1412873   2.235   0.942   2.211  0.7762  0.2133 -0.0390
   97POPC  H14A12874   2.129   0.921   2.205  0.8546  0.1826 -1.7235
   97POPC  H14B12875   2.244   1.027   2.277 -0.5084  0.1616  0.2344
   97POPC  H14C12876   2.273   0.986   2.120 -1.6097  2.1695 -0.1826
   97POPC   C1512877   2.456   0.884   2.270 -0.1065  0.0230 -0.1492
   97POPC  H15A12878   2.523   0.818   2.322  1.6097  1.6180 -0.1936
   97POPC  H15B12879   2.458   0.975   2.328  1.7417 -0.3771  0.4830
   97POPC  H15C12880   2.492   0.903   2.170 -0.9605  2.3223 -0.1038
   97POPC   C1112881   2.332   0.664   2.453 -1.4281 -0.1974 -0.4687
   97POPC  H11A12882   2.304   0.578   2.388  0.4519 -1.0144 -0.2585
   97POPC  H11B12883   2.300   0.632   2.554  3.3006 -2.0927  0.7155
   97POPC     P12884   2.580   0.584   2.393  0.0861 -0.5301  0.3580
   97POPC   O1312885   2.704   0.664   2.375  0.0174  0.2898  0.1754
   97POPC   O1412886   2.523   0.519   2.275  0.0153 -0.0806  0.0329
   97POPC   O1212887   2.475   0.673   2.466  0.3326 -0.1931  0.5320
   97POPC   O1112888   2.621   0.480   2.504  0.0253 -0.0147  0.4659
   97POPC    C112889   2.597   0.496   2.644  0.4715  0.4194 -0.3202
   97POPC    HA12890   2.614   0.399   2.696 -0.3305  0.3593 -0.1583
   97POPC    HB12891   2.491   0.523   2.660 -0.3240 -2.1505 -0.6813
   97POPC    C212892   2.694   0.603   2.710 -0.1354 -0.0842 -0.3868
   97POPC    HS12893   2.696   0.679   2.629 -0.1491 -0.2640 -0.5549
   97POPC   O2112894   2.825   0.542   2.729  0.5879  0.3513  0.7774
   97POPC   C2112895   2.914   0.629   2.763 -0.2785  0.8051 -0.3087
   97POPC   O2212896   2.904   0.750   2.783 -0.1066  0.2584  0.2142
   97POPC   C2212897   3.047   0.553   2.789 -0.4063  0.3942  0.0092
   97POPC   H2R12898   3.116   0.621   2.843 -1.4379  0.8087  0.8175
   97POPC   H2S12899   3.097   0.539   2.690 -0.2711  0.6534  0.0396
   97POPC    C312900   2.630   0.654   2.843  0.1541  0.2465  0.0898
   97POPC    HX12901   2.527   0.694   2.829 -0.2928 -1.2835 -1.4585
   97POPC    HY12902   2.684   0.746   2.875 -2.6441  2.3171 -0.7168
   97POPC   O3112903   2.634   0.552   2.944 -0.6614  0.4652  0.4634
   97POPC   C3112904   2.522   0.490   2.977 -0.6902  0.5931  0.4234
   97POPC   O3212905   2.418   0.509   2.922  0.6408 -0.5125 -0.2860
   97POPC   C3212906   2.538   0.404   3.103  0.1745 -0.1427 -0.0400
   97POPC   H2X12907   2.627   0.340   3.085  0.6220  1.2592 -3.4986
   97POPC   H2Y12908   2.447   0.340   3.100 -0.7862  1.2285 -0.9654
   97POPC   C2312909   3.023   0.429   2.872  0.0131 -0.4302 -0.3816
   97POPC   H3R12910   3.115   0.367   2.876 -0.7849 -1.6866 -0.9181
   97POPC   H3S12911   2.953   0.353   2.830 -0.4210 -0.2556  0.0161
   97POPC   C2412912   2.984   0.473   3.015  0.1734  0.3046 -0.2396
   97POPC   H4R12913   2.893   0.537   3.008  1.0287  1.5233 -0.5183
   97POPC   H4S12914   3.068   0.535   3.054  0.4684 -0.2400 -0.0007
   97POPC   C2512915   2.954   0.345   3.100  0.2897  0.5276 -0.5231
   97POPC   H5R12916   3.049   0.288   3.103  0.2252  0.4310 -0.2735
   97POPC   H5S12917   2.879   0.293   3.036 -0.0441  0.1766  0.1373
   97POPC   C2612918   2.904   0.373   3.244 -0.3442  0.0936 -0.0260
   97POPC   H6R12919   2.801   0.415   3.238 -0.4972 -0.3569 -0.6623
   97POPC   H6S12920   2.969   0.446   3.296  1.1856 -0.3153 -1.2701
   97POPC   C2712921   2.894   0.245   3.329  0.2652 -0.2277 -0.5893
   97POPC   H7R12922   2.793   0.201   3.312 -0.6282  1.3437  0.3467
   97POPC   H7S12923   2.873   0.275   3.434 -2.0839  0.6019 -1.2242
   97POPC   C2812924   3.006   0.143   3.312  0.4647 -0.2969 -0.2505
   97POPC   H8R12925   3.029   0.122   3.206  1.5007  1.9927 -0.5303
   97POPC   H8S12926   2.966   0.049   3.358 -2.1708  0.7021 -0.3533
   97POPC   C2912927   3.131   0.207   3.369  0.3614 -0.2650 -0.4172
   97POPC   H9112928   3.194   0.260   3.297 -0.4495  1.7164  0.2637
   97POPC  C21012929   3.186   0.193   3.493  0.4782  0.6484 -0.7352
   97POPC  H10112930   3.272   0.256   3.517  0.6467  0.6878 -1.4197
   97POPC  C21112931   3.114   0.128   3.611 -0.1226  0.0079 -0.7446
   97POPC  H11R12932   3.155   0.026   3.623 -0.0466 -0.0441 -1.4352
   97POPC  H11S12933   3.004   0.122   3.595 -0.5410  0.3629  1.6264
   97POPC  C21212934   3.123   0.207   3.744 -0.1070  0.6449  0.3230
   97POPC  H12R12935   3.224   0.196   3.789 -0.1592  2.0860  0.8576
   97POPC  H12S12936   3.043   0.156   3.801  0.0972 -1.0499 -0.8351
   97POPC  C21312937   3.102   0.361   3.736 -0.4573 -0.4723  0.3198
   97POPC  H13R12938   3.013   0.388   3.675 -0.8900  1.3179  1.6703
   97POPC  H13S12939   3.192   0.401   3.685  0.6204  1.0966  3.2370
   97POPC  C21412940   3.085   0.434   3.868 -0.4861 -0.2730  0.7613
   97POPC  H14R12941   2.980   0.412   3.900 -0.6846  1.3652  1.3195
   97POPC  H14S12942   3.095   0.544   3.863 -2.2389 -0.0954  0.5669
   97POPC  C21512943   3.198   0.401   3.967  0.2296 -0.0680 -0.0366
   97POPC  H15R12944   3.289   0.442   3.919 -0.1827  0.8256 -0.0868
   97POPC  H15S12945   3.203   0.291   3.976  2.2886  0.1503  2.5482
   97POPC  C21612946   3.183   0.455   4.106 -0.1084  0.6057 -0.2715
   97POPC  H16R12947   3.100   0.400   4.154 -3.7989  3.0389 -3.2715
   97POPC  H16S12948   3.164   0.565   4.098  4.3429  1.4716 -2.3993
   97POPC  C21712949   3.308   0.435   4.190 -0.1865  0.1347  0.2264
   97POPC  H17R12950   3.293   0.485   4.288  0.4113  0.0065  0.3903
   97POPC  H17S12951   3.393   0.478   4.133  0.6925 -2.2014 -0.3263
   97POPC  C21812952   3.348   0.289   4.215 -0.2724 -0.1263  0.5616
   97POPC  H18R12953   3.316   0.216   4.138 -0.0221 -0.0866  0.4170
   97POPC  H18S12954   3.320   0.251   4.315 -1.0520  1.3686  0.9505
   97POPC  H18T12955   3.459   0.283   4.222 -0.3632 -0.6391  1.7926
   97POPC   C3312956   2.539   0.481   3.228  0.3107  0.2857 -0.0914
   97POPC   H3X12957   2.452   0.550   3.234  0.2228  0.0499  3.4230
   97POPC   H3Y12958   2.629   0.546   3.238  0.7460 -0.4678  1.1396
   97POPC   C3412959   2.529   0.397   3.365 -0.4836 -0.1795  0.3527
   97POPC   H4X12960   2.608   0.322   3.344  1.9517  1.8229  1.6689
   97POPC   H4Y12961   2.426   0.358   3.375 -1.2026  1.8262  1.3977
   97POPC   C3512962   2.571   0.486   3.490  0.2200 -0.8406  0.4301
   97POPC   H5X12963   2.490   0.562   3.496  0.4119 -0.6840  1.1098
   97POPC   H5Y12964   2.671   0.526   3.465 -0.8263  0.6654 -1.7303
   97POPC   C3612965   2.561   0.421   3.626 -0.4964  0.4831 -0.0031
   97POPC   H6X12966   2.621   0.328   3.625  0.9668  1.3799 -0.3684
   97POPC   H6Y12967   2.455   0.400   3.651 -0.8833 -1.0372 -2.5591
   97POPC   C3712968   2.610   0.514   3.737 -0.5491 -0.5719  0.1755
   97POPC   H7X12969   2.700   0.569   3.701 -0.7741 -0.3305 -0.0315
   97POPC   H7Y12970   2.621   0.459   3.832  1.3143  1.0144  0.9453
   97POPC   C3812971   2.510   0.637   3.758 -0.2333  0.2384  0.2545
   97POPC   H8X12972   2.417   0.594   3.800  0.4544 -0.9518  0.6246
   97POPC   H8Y12973   2.485   0.682   3.660  1.2078  0.1171 -0.1959
   97POPC   C3912974   2.568   0.738   3.865 -0.5119 -0.0387 -0.2638
   97POPC   H9X12975   2.670   0.773   3.839 -0.7584  0.3266 -0.7439
   97POPC   H9Y12976   2.587   0.695   3.966  0.1668  2.0323  0.5540
   97POPC  C31012977   2.469   0.855   3.878  0.1323 -0.9092  0.3528
   97POPC  H10X12978   2.382   0.805   3.926  0.5070 -2.6672 -0.7218
   97POPC  H10Y12979   2.440   0.893   3.778 -0.2064 -2.5109 -0.1919
   97POPC  C31112980   2.524   0.967   3.963  0.3514  0.4301  0.2619
   97POPC  H11X12981   2.603   1.013   3.900  0.6897  1.4822  1.4232
   97POPC  H11Y12982   2.583   0.922   4.045  2.9554  0.5448 -1.4253
   97POPC  C31212983   2.416   1.062   4.019 -0.4961 -0.7040 -0.5517
   97POPC  H12X12984   2.355   1.002   4.089  1.1939  0.8922  2.4974
   97POPC  H12Y12985   2.354   1.096   3.932 -0.5023 -1.7263 -0.9560
   97POPC  C31312986   2.474   1.187   4.086 -0.4217  0.8336  0.2327
   97POPC  H13X12987   2.549   1.164   4.165 -0.9971  1.0258  0.8372
   97POPC  H13Y12988   2.397   1.246   4.140 -1.2693  2.9684 -2.9757
   97POPC  C31412989   2.538   1.284   3.981  0.2014 -0.0238  0.1327
   97POPC  H14X12990   2.474   1.288   3.890  1.4598 -1.4720 -0.8658
   97POPC  H14Y12991   2.636   1.239   3.954  0.1743  0.8099 -1.4781
   97POPC  C31512992   2.545   1.420   4.031 -0.2307  0.3408 -0.3026
   97POPC  H15X12993   2.610   1.432   4.121 -1.5409  1.5112  0.5252
   97POPC  H15Y12994   2.442   1.445   4.064 -0.0394 -1.6019  2.0786
   97POPC  C31612995   2.594   1.516   3.922 -0.2600  0.6607  0.0867
   97POPC  H16X12996   2.580   1.473   3.821  1.1092 -2.4173  1.0709
   97POPC  H16Y12997   2.703   1.536   3.935 -0.0588 -0.6663  0.5507
   97POPC  H16Z12998   2.534   1.609   3.929 -0.2035  0.6290  1.1389
   98POPC     N12999   0.502   2.866   1.843 -0.5384 -0.8205  0.2690
   98POPC   C1213000   0.480   2.740   1.921  0.0633  0.3022  0.5867
   98POPC  H12A13001   0.572   2.684   1.929 -0.1810 -0.1144  0.5193
   98POPC  H12B13002   0.414   2.676   1.864  0.9950 -0.3057  0.1676
   98POPC   C1313003   0.373   2.934   1.811  0.4322 -0.4821 -0.4663
   98POPC  H13A13004   0.320   2.869   1.743  0.4711 -1.4768  0.4261
   98POPC  H13B13005   0.314   2.947   1.900  2.7687 -1.0034  1.2713
   98POPC  H13C13006   0.380   3.032   1.766 -1.8405 -0.0755 -0.0402
   98POPC   C1413007   0.588   2.960   1.921 -0.4811 -0.2286 -0.1311
   98POPC  H14A13008   0.679   2.906   1.942 -0.9031 -0.6577  0.6424
   98POPC  H14B13009   0.604   3.053   1.868 -2.7528  0.8407  0.9171
   98POPC  H14C13010   0.541   2.974   2.017 -0.6964  0.4784 -0.3361
   98POPC   C1513011   0.580   2.849   1.715  0.0741 -0.2377  0.4134
   98POPC  H15A13012   0.589   2.943   1.662 -0.4755 -0.5526 -0.2557
   98POPC  H15B13013   0.530   2.777   1.652 -0.6076 -0.1914  0.8825
   98POPC  H15C13014   0.676   2.803   1.728  0.2309 -0.4925 -1.4371
   98POPC   C1113015   0.418   2.752   2.066  0.2780 -0.0219 -0.2450
   98POPC  H11A13016   0.384   2.651   2.096  0.3646  0.1261  0.3561
   98POPC  H11B13017   0.330   2.813   2.034  0.1627 -0.5395 -0.9522
   98POPC     P13018   0.591   2.724   2.254 -0.1309 -0.1898  0.0364
   98POPC   O1313019   0.670   2.818   2.340 -0.5653  0.6187 -0.4450
   98POPC   O1413020   0.663   2.631   2.166  0.1573  0.3331  0.2352
   98POPC   O1213021   0.493   2.823   2.166  0.1314 -0.2899  1.1346
   98POPC   O1113022   0.493   2.643   2.338  0.0411  0.6593  0.6296
   98POPC    C113023   0.383   2.715   2.405  0.5734 -0.0292  0.1930
   98POPC    HA13024   0.285   2.664   2.396  0.3593  0.4960 -0.6021
   98POPC    HB13025   0.363   2.811   2.354 -2.3085 -0.8460 -0.3665
   98POPC    C213026   0.422   2.744   2.557 -0.5252 -0.8417  1.0217
   98POPC    HS13027   0.532   2.763   2.557 -0.6916  0.2268  0.1295
   98POPC   O2113028   0.375   2.628   2.622  0.4112 -0.3965  0.3733
   98POPC   C2113029   0.440   2.595   2.730  0.0827  0.0498 -0.0560
   98POPC   O2213030   0.555   2.630   2.753  0.0145 -0.6175  0.5056
   98POPC   C2213031   0.353   2.513   2.821  0.3372  0.4117  0.5258
   98POPC   H2R13032   0.299   2.439   2.759  0.0970 -0.2665  1.5179
   98POPC   H2S13033   0.276   2.580   2.865  0.7149  0.3687  1.2637
   98POPC    C313034   0.356   2.871   2.607  0.6123 -0.2469 -0.1436
   98POPC    HX13035   0.246   2.857   2.601 -0.0368  1.6557  3.8913
   98POPC    HY13036   0.379   2.954   2.538  2.3310  0.0403  0.7184
   98POPC   O3113037   0.389   2.904   2.745  0.2632 -0.2986  0.3836
   98POPC   C3113038   0.491   2.990   2.754  0.0237 -0.4063 -0.7146
   98POPC   O3213039   0.550   3.040   2.660 -0.1439  0.4465 -0.5184
   98POPC   C3213040   0.527   3.006   2.903 -0.2293 -0.6531  0.0868
   98POPC   H2X13041   0.623   2.953   2.921 -0.6406 -1.4189  0.0422
   98POPC   H2Y13042   0.452   2.973   2.979  0.0253  2.5656  1.9415
   98POPC   C2313043   0.443   2.454   2.926 -0.4976 -0.0325 -0.2680
   98POPC   H3R13044   0.531   2.406   2.878  0.7524  0.4567  1.4289
   98POPC   H3S13045   0.392   2.387   2.997  0.4435 -0.6774 -0.1837
   98POPC   C2413046   0.488   2.563   3.035 -0.2011 -0.5050 -0.0325
   98POPC   H4R13047   0.395   2.607   3.079  0.2876  0.3348  0.1766
   98POPC   H4S13048   0.535   2.655   2.995 -1.8978  0.4103 -0.0194
   98POPC   C2513049   0.579   2.495   3.134 -0.2053 -0.1798 -0.0622
   98POPC   H5R13050   0.677   2.477   3.085 -0.5847  1.5543 -1.5477
   98POPC   H5S13051   0.537   2.402   3.179  0.7855 -0.9245 -0.6361
   98POPC   C2613052   0.626   2.588   3.249  0.1625  0.4174 -0.2983
   98POPC   H6R13053   0.715   2.550   3.303  1.3071  2.4207 -0.6696
   98POPC   H6S13054   0.544   2.602   3.323  0.7123  0.9434  0.2190
   98POPC   C2713055   0.652   2.732   3.199  0.5700 -0.1316 -0.2633
   98POPC   H7R13056   0.558   2.774   3.158  0.9790  0.7487 -0.3373
   98POPC   H7S13057   0.732   2.734   3.123  1.1694  0.6966  0.3591
   98POPC   C2813058   0.691   2.830   3.314  0.4178  0.3250 -0.2198
   98POPC   H8R13059   0.614   2.811   3.392  0.8841  0.3435  0.2501
   98POPC   H8S13060   0.663   2.936   3.294  0.8334  1.2406  3.3901
   98POPC   C2913061   0.832   2.839   3.368 -0.2722 -0.1436 -0.6330
   98POPC   H9113062   0.908   2.793   3.303  0.3092 -1.6897  1.0372
   98POPC  C21013063   0.873   2.893   3.481  0.3270 -0.2711  0.0480
   98POPC  H10113064   0.982   2.900   3.496  0.1022  1.1102  1.2850
   98POPC  C21113065   0.779   2.958   3.577  0.3131  0.4864 -0.2255
   98POPC  H11R13066   0.734   2.877   3.638  2.0723 -1.9747 -1.9905
   98POPC  H11S13067   0.702   3.019   3.526  0.6049  0.2170 -1.0062
   98POPC  C21213068   0.842   3.050   3.676 -0.2808 -0.6345  0.5160
   98POPC  H12R13069   0.915   2.999   3.742  2.7464  2.1309 -0.4407
   98POPC  H12S13070   0.762   3.075   3.749  1.0219 -1.1586  2.1908
   98POPC  C21313071   0.901   3.178   3.612  0.6936 -0.0373 -0.0464
   98POPC  H13R13072   0.833   3.226   3.538 -0.1074 -1.3261 -0.1712
   98POPC  H13S13073   0.984   3.141   3.548  0.5205 -0.8936  0.2103
   98POPC  C21413074   0.956   3.283   3.714  0.2603 -0.5377  0.3277
   98POPC  H14R13075   1.031   3.240   3.784 -0.2532 -1.7905  0.1507
   98POPC  H14S13076   0.875   3.324   3.777  2.2267  1.0223  1.9754
   98POPC  C21513077   1.033   3.403   3.657 -0.3720 -0.0902  0.4756
   98POPC  H15R13078   0.986   3.441   3.564 -0.0580  0.0908  0.3888
   98POPC  H15S13079   1.131   3.361   3.626 -0.2968  2.2150 -2.9357
   98POPC  C21613080   1.052   3.515   3.759 -0.1624  0.3670  0.2057
   98POPC  H16R13081   1.093   3.471   3.852  1.8630  1.2421 -0.2243
   98POPC  H16S13082   0.950   3.555   3.780 -0.6107 -0.8343  0.4211
   98POPC  C21713083   1.148   3.626   3.721 -0.4905 -0.3750 -0.7636
   98POPC  H17R13084   1.122   3.677   3.625  0.1781 -1.1702 -1.3866
   98POPC  H17S13085   1.247   3.581   3.699  0.2652  0.9758 -0.2828
   98POPC  C21813086   1.179   3.730   3.832  0.7920  0.4442 -0.1500
   98POPC  H18R13087   1.086   3.791   3.841  0.8781  0.3240  2.2138
   98POPC  H18S13088   1.271   3.788   3.811  2.4129 -1.9940 -0.2649
   98POPC  H18T13089   1.192   3.671   3.925  0.8781  1.2006  0.3228
   98POPC   C3313090   0.555   3.155   2.936 -0.4374 -0.5341 -0.7018
   98POPC   H3X13091   0.466   3.216   2.911 -0.2687 -0.5233 -1.2724
   98POPC   H3Y13092   0.639   3.190   2.873  0.1872 -2.2179 -0.8539
   98POPC   C3413093   0.608   3.177   3.078 -0.7814  0.3417 -0.2507
   98POPC   H4X13094   0.714   3.144   3.078 -0.3107  1.5875  1.9959
   98POPC   H4Y13095   0.554   3.100   3.137 -0.3479 -0.1192 -0.4503
   98POPC   C3513096   0.575   3.321   3.139  0.0793 -0.9525 -0.3310
   98POPC   H5X13097   0.466   3.335   3.159 -1.0056 -4.8280 -2.4545
   98POPC   H5Y13098   0.617   3.403   3.077 -1.1507  1.3538  1.6895
   98POPC   C3613099   0.645   3.334   3.277  0.5430  0.2565 -0.5110
   98POPC   H6X13100   0.752   3.362   3.272  0.1309  2.2863  0.8313
   98POPC   H6Y13101   0.652   3.236   3.328  2.4370 -0.0946 -1.3479
   98POPC   C3713102   0.591   3.442   3.368 -0.7797  0.1518 -0.5915
   98POPC   H7X13103   0.492   3.415   3.410  0.2064  0.6070  2.2530
   98POPC   H7Y13104   0.578   3.538   3.313  1.1833  0.7637 -0.0746
   98POPC   C3813105   0.688   3.472   3.487 -0.6318 -0.3314  0.0376
   98POPC   H8X13106   0.793   3.483   3.451 -0.4826  0.6846  0.7167
   98POPC   H8Y13107   0.685   3.390   3.562  1.9658  0.4979  1.2084
   98POPC   C3913108   0.642   3.599   3.567  1.3674 -0.3929 -0.2461
   98POPC   H9X13109   0.630   3.680   3.492  0.2279 -0.1063  0.2215
   98POPC   H9Y13110   0.708   3.619   3.654 -0.3226 -0.5046  1.1295
   98POPC  C31013111   0.488   3.596   3.619 -0.5976  0.6625 -0.2196
   98POPC  H10X13112   0.470   3.497   3.667  0.2436  0.1863 -0.8627
   98POPC  H10Y13113   0.425   3.603   3.529  1.0756 -0.3759 -1.5386
   98POPC  C31113114   0.459   3.713   3.714  0.4603  0.2234  0.0880
   98POPC  H11X13115   0.462   3.805   3.652  0.6379  1.1431  1.4275
   98POPC  H11Y13116   0.541   3.723   3.788  1.4837 -1.3393 -0.7751
   98POPC  C31213117   0.325   3.693   3.779 -0.6720 -0.8171 -0.2131
   98POPC  H12X13118   0.317   3.586   3.809 -0.7136 -0.5700  0.6711
   98POPC  H12Y13119   0.249   3.718   3.702 -0.7345  1.5289  0.5403
   98POPC  C31313120   0.300   3.780   3.897 -0.1966 -0.0727 -0.2871
   98POPC  H13X13121   0.371   3.866   3.896 -0.0084 -0.1691  1.4094
   98POPC  H13Y13122   0.314   3.720   3.990 -2.0467  0.9857  0.7344
   98POPC  C31413123   0.155   3.832   3.906  0.3662  0.1963  0.0251
   98POPC  H14X13124   0.081   3.749   3.898  0.9084 -0.1614 -1.7815
   98POPC  H14Y13125   0.132   3.890   3.815  1.3010  0.5621  0.0151
   98POPC  C31513126   0.142   3.909   4.036 -0.1130 -0.1039 -0.4873
   98POPC  H15X13127   0.217   3.991   4.035  0.3548 -0.5311 -0.8397
   98POPC  H15Y13128   0.171   3.828   4.106 -0.5904  0.7376  0.7066
   98POPC  C31613129  -0.001   3.966   4.064  0.0681 -0.1356  0.5701
   98POPC  H16X13130  -0.003   4.000   4.170  0.3762  0.0338  0.5236
   98POPC  H16Y13131  -0.078   3.886   4.065  0.1265 -0.1939  0.4056
   98POPC  H16Z13132  -0.033   4.046   3.994  0.0180 -0.4530  0.2346
   99POPC     N13133   6.092   2.886   1.752 -0.4979  0.3138  0.2761
   99POPC   C1213134   6.107   2.843   1.899 -0.2852 -0.0133 -0.1601
   99POPC  H12A13135   6.196   2.782   1.904  0.6576  1.1985 -1.4655
   99POPC  H12B13136   6.025   2.778   1.925  0.6289 -1.2453 -0.2615
   99POPC   C1313137   6.225   2.944   1.703  0.2328  0.3503  0.3400
   99POPC  H13A13138   6.218   2.967   1.598  0.6265 -1.4276 -0.0923
   99POPC  H13B13139   6.257   3.023   1.769 -0.6199  1.3598 -0.4049
   99POPC  H13C13140   6.295   2.862   1.708 -1.6942 -1.3351  1.1642
   99POPC   C1413141   6.056   2.763   1.673 -0.3738 -0.0044  0.1162
   99POPC  H14A13142   6.040   2.787   1.569 -2.0617 -0.1984  0.3149
   99POPC  H14B13143   6.137   2.692   1.683  1.2431  1.4142 -1.8790
   99POPC  H14C13144   5.970   2.707   1.704  1.0466 -2.1776  0.3472
   99POPC   C1513145   5.976   2.974   1.744 -0.0856  0.5466  0.2956
   99POPC  H15A13146   5.984   3.067   1.797 -2.1368  1.5066 -0.9453
   99POPC  H15B13147   5.884   2.921   1.768 -0.1169  0.4114 -0.1102
   99POPC  H15C13148   5.965   2.992   1.638 -2.6821  0.6514  0.5112
   99POPC   C1113149   6.119   2.946   2.010 -0.0405  0.1273 -0.0048
   99POPC  H11A13150   6.114   2.891   2.107  2.6817 -1.8453 -0.8746
   99POPC  H11B13151   6.027   3.009   2.005  0.4366  0.9600  1.1686
   99POPC     P13152   6.372   2.954   2.040  0.0259  0.0669 -0.2448
   99POPC   O1313153   6.482   3.045   1.999 -0.4932 -0.0652 -0.0373
   99POPC   O1413154   6.376   2.824   1.984  0.1930 -0.5524 -0.2721
   99POPC   O1213155   6.243   3.026   1.993  0.4424  0.7046 -0.3572
   99POPC   O1113156   6.365   2.932   2.194  0.1101 -0.5580 -0.1620
   99POPC    C113157   6.374   3.029   2.298  0.1232 -0.3996  0.2891
   99POPC    HA13158   6.353   3.133   2.267 -0.1287 -0.6105 -0.2720
   99POPC    HB13159   6.480   3.025   2.331  0.2311 -0.0775 -0.0093
   99POPC    C213160   6.284   2.990   2.418  0.0343 -0.0666 -0.4649
   99POPC    HS13161   6.196   3.057   2.411 -0.1395 -0.3052 -0.5532
   99POPC   O2113162   6.359   3.006   2.538  0.8138 -0.5890 -0.1492
   99POPC   C2113163   6.293   3.049   2.650 -0.3704 -0.6488  0.3159
   99POPC   O2213164   6.176   3.074   2.657 -0.6915  0.5695  0.1880
   99POPC   C2213165   6.392   3.043   2.764  0.1407  0.1141  0.0953
   99POPC   H2R13166   6.481   3.086   2.714 -1.5215 -0.0678 -3.2840
   99POPC   H2S13167   6.412   2.936   2.785 -1.8353 -0.1437  0.9369
   99POPC    C313168   6.240   2.843   2.407  0.2822  0.4338  0.3124
   99POPC    HX13169   6.335   2.788   2.390  0.6949  0.7915  1.3598
   99POPC    HY13170   6.171   2.830   2.321 -1.7385 -0.4501  1.9926
   99POPC   O3113171   6.163   2.807   2.521 -0.4361  0.0064  0.0513
   99POPC   C3113172   6.205   2.701   2.580  0.2493 -0.1955 -0.3455
   99POPC   O3213173   6.307   2.636   2.556  0.4221 -0.1028  0.6848
   99POPC   C3213174   6.107   2.668   2.700 -0.0477 -0.3598  0.1105
   99POPC   H2X13175   6.006   2.648   2.661 -0.1160 -1.4198  0.7980
   99POPC   H2Y13176   6.095   2.770   2.744  2.3153  0.1002 -0.1488
   99POPC   C2313177   6.339   3.116   2.893 -0.5668  0.3661  0.5586
   99POPC   H3R13178   6.248   3.072   2.939 -1.3353 -0.0208 -1.2610
   99POPC   H3S13179   6.329   3.224   2.871  0.9471  0.6607  1.1510
   99POPC   C2413180   6.451   3.107   3.001 -0.3051 -0.7373 -0.1768
   99POPC   H4R13181   6.431   3.179   3.083 -3.6297 -0.9329 -0.6600
   99POPC   H4S13182   6.548   3.140   2.960 -0.1193  1.2126  1.6616
   99POPC   C2513183   6.474   2.968   3.051  0.1179 -0.0458  0.2532
   99POPC   H5R13184   6.517   2.892   2.983 -1.9553 -0.6832 -0.4021
   99POPC   H5S13185   6.375   2.919   3.059  0.6982 -1.2652  0.2222
   99POPC   C2613186   6.554   2.968   3.184  0.5072 -0.0723 -0.1250
   99POPC   H6R13187   6.648   3.025   3.169  0.5775 -0.7785 -3.0863
   99POPC   H6S13188   6.585   2.866   3.215 -0.5771 -0.4943 -0.3701
   99POPC   C2713189   6.472   3.029   3.299  0.1811  0.3452 -0.2463
   99POPC   H7R13190   6.369   2.988   3.305  0.3307  0.0790  0.6681
   99POPC   H7S13191   6.449   3.136   3.280 -0.9133  0.1385 -0.1529
   99POPC   C2813192   6.534   3.010   3.440 -0.2883 -0.6175 -0.1982
   99POPC   H8R13193   6.543   2.899   3.439 -0.3654 -0.6495 -2.6898
   99POPC   H8S13194   6.462   3.033   3.521 -0.5294 -0.7840 -0.3651
   99POPC   C2913195   6.677   3.075   3.453 -0.8123  0.0028 -0.8680
   99POPC   H9113196   6.728   3.090   3.357  2.0283  0.8316  0.6718
   99POPC  C21013197   6.745   3.109   3.562 -0.4476 -0.3522 -0.2440
   99POPC  H10113198   6.828   3.178   3.541 -0.0597 -0.2833  1.3790
   99POPC  C21113199   6.696   3.095   3.701  0.2632  0.1673  0.1217
   99POPC  H11R13200   6.768   3.042   3.766 -2.1778 -0.6108  2.3878
   99POPC  H11S13201   6.601   3.038   3.703  0.3546 -0.0626 -1.3359
   99POPC  C21213202   6.683   3.233   3.768  0.6011  0.0351  0.2407
   99POPC  H12R13203   6.602   3.289   3.716  0.3253 -0.7683 -0.2011
   99POPC  H12S13204   6.777   3.292   3.761  3.0664 -3.7309 -1.6782
   99POPC  C21313205   6.636   3.220   3.911  0.8676  0.5261 -0.1548
   99POPC  H13R13206   6.660   3.308   3.975 -0.6689  1.7655 -1.2085
   99POPC  H13S13207   6.687   3.132   3.956 -1.3793 -0.1822  1.1860
   99POPC  C21413208   6.486   3.205   3.938  1.2291  0.5084 -0.5032
   99POPC  H14R13209   6.470   3.214   4.048  0.4010 -0.4772 -0.5263
   99POPC  H14S13210   6.460   3.100   3.915 -0.1425  0.9190 -0.9373
   99POPC  C21513211   6.392   3.304   3.873  0.6302 -0.8034  0.0670
   99POPC  H15R13212   6.388   3.288   3.763  0.7966  0.9478 -0.2141
   99POPC  H15S13213   6.428   3.408   3.886  0.9876 -1.0218  0.8871
   99POPC  C21613214   6.249   3.276   3.920 -0.4837  0.1863 -0.6401
   99POPC  H16R13215   6.232   3.300   4.027 -1.2004 -0.2097 -0.6590
   99POPC  H16S13216   6.229   3.167   3.913  0.5893  0.0198 -1.2513
   99POPC  C21713217   6.153   3.363   3.837  0.2327 -0.0791 -0.2542
   99POPC  H17R13218   6.043   3.350   3.847  0.0327  2.0095  0.7767
   99POPC  H17S13219   6.166   3.333   3.731  0.5275 -2.6389  0.4425
   99POPC  C21813220   6.173   3.513   3.866  0.1692  0.5202  0.0286
   99POPC  H18R13221   6.171   3.533   3.975 -1.4352  1.4626 -0.1421
   99POPC  H18S13222   6.101   3.568   3.801  1.1287  1.9937  0.1452
   99POPC  H18T13223   6.275   3.537   3.827  0.2588  0.9141  0.4919
   99POPC   C3313224   6.162   2.568   2.798  0.8149 -0.1963 -0.0886
   99POPC   H3X13225   6.211   2.486   2.741  0.3862 -1.5202  1.3562
   99POPC   H3Y13226   6.083   2.526   2.864  0.4577 -2.4440 -1.8227
   99POPC   C3413227   6.266   2.621   2.892 -0.1630  0.2449 -0.4773
   99POPC   H4X13228   6.244   2.723   2.931  0.9638 -0.1118  1.2418
   99POPC   H4Y13229   6.369   2.619   2.852 -0.0980 -0.1524 -0.2879
   99POPC   C3513230   6.290   2.525   3.014  0.9704 -0.1096  0.7179
   99POPC   H5X13231   6.359   2.443   2.986 -0.1021 -1.2560  1.3238
   99POPC   H5Y13232   6.194   2.488   3.057  2.3042  0.0970  4.1925
   99POPC   C3613233   6.369   2.586   3.131 -0.4149 -0.0046 -0.1251
   99POPC   H6X13234   6.313   2.663   3.189 -0.4070  0.1994 -0.3871
   99POPC   H6Y13235   6.455   2.644   3.093 -1.1391 -0.0300 -1.8946
   99POPC   C3713236   6.431   2.478   3.225  0.7469  1.2546  0.2284
   99POPC   H7X13237   6.505   2.426   3.160  0.6240 -0.3002  1.2789
   99POPC   H7Y13238   6.353   2.403   3.252  0.3911  1.2117 -0.8666
   99POPC   C3813239   6.505   2.543   3.339 -0.6666  0.0115  0.5999
   99POPC   H8X13240   6.443   2.620   3.391 -0.8402  0.4838 -0.2796
   99POPC   H8Y13241   6.593   2.600   3.301  0.1041 -1.3681  0.2642
   99POPC   C3913242   6.556   2.442   3.441 -0.0410 -0.1401  0.3866
   99POPC   H9X13243   6.647   2.390   3.406 -0.0458 -0.3352  0.6587
   99POPC   H9Y13244   6.476   2.370   3.470 -0.4786  0.4287  0.6199
   99POPC  C31013245   6.588   2.523   3.569 -0.1347 -0.3399 -0.0690
   99POPC  H10X13246   6.616   2.451   3.649  2.4253 -0.0663 -0.6429
   99POPC  H10Y13247   6.494   2.574   3.600  1.3125  1.5144  1.5241
   99POPC  C31113248   6.706   2.618   3.567  0.5390 -0.0334  0.0977
   99POPC  H11X13249   6.705   2.687   3.480  0.7778 -0.1171  0.0269
   99POPC  H11Y13250   6.790   2.546   3.555 -0.9820 -1.7262 -0.8207
   99POPC  C31213251   6.720   2.706   3.695 -0.3053 -0.1758 -0.0654
   99POPC  H12X13252   6.619   2.745   3.720 -0.7302 -0.4354 -1.2907
   99POPC  H12Y13253   6.782   2.795   3.673 -0.0826 -0.9053 -2.8189
   99POPC  C31313254   6.792   2.625   3.812 -0.6121  0.2857 -0.0306
   99POPC  H13X13255   6.873   2.564   3.769 -2.0054 -0.8421 -1.1605
   99POPC  H13Y13256   6.723   2.557   3.867 -0.6889  0.3584 -0.0360
   99POPC  C31413257   6.860   2.722   3.912  0.1322  0.1463 -0.1467
   99POPC  H14X13258   6.784   2.794   3.950 -0.3751 -0.2043 -0.4871
   99POPC  H14Y13259   6.950   2.769   3.866  1.1514 -1.5692  0.0267
   99POPC  C31513260   6.910   2.651   4.041  0.0702 -0.4227 -0.0184
   99POPC  H15X13261   6.954   2.715   4.121  0.8168 -0.2529 -0.5652
   99POPC  H15Y13262   6.996   2.595   3.999  2.2436  2.1206  0.7027
   99POPC  C31613263   6.819   2.563   4.120  0.2449 -0.3617 -0.2165
   99POPC  H16X13264   6.882   2.503   4.190  2.0460 -0.0530 -1.5137
   99POPC  H16Y13265   6.741   2.497   4.077 -2.5105  1.6753  1.3913
   99POPC  H16Z13266   6.759   2.633   4.182  1.6954  0.7954 -0.0670
  100POPC     N13267   1.014   5.785   2.081  0.0063  0.3871 -0.2276
  100POPC   C1213268   1.027   5.626   2.065 -0.5463 -0.2368  0.5812
  100POPC  H12A13269   0.987   5.590   1.972  2.1655 -2.7591  0.2696
  100POPC  H12B13270   0.987   5.568   2.147 -0.4563 -0.6756  0.3130
  100POPC   C1313271   0.873   5.818   2.081  0.2060 -0.2811 -0.3395
  100POPC  H13A13272   0.853   5.918   2.118  1.3573 -0.5345  1.0696
  100POPC  H13B13273   0.838   5.790   1.983  2.2088  1.9678 -1.8087
  100POPC  H13C13274   0.812   5.752   2.141 -3.1307  2.4245 -0.3994
  100POPC   C1413275   1.079   5.833   2.202  0.3406  0.2894  0.4460
  100POPC  H14A13276   1.038   5.779   2.286  2.1218  0.8571  1.7462
  100POPC  H14B13277   1.185   5.817   2.207  0.4769  0.3407 -1.4626
  100POPC  H14C13278   1.067   5.938   2.226 -0.2152  0.4443 -0.4505
  100POPC   C1513279   1.070   5.854   1.963 -0.5006  0.4370 -0.1123
  100POPC  H15A13280   1.031   5.954   1.959 -0.4568  0.4545 -0.1180
  100POPC  H15B13281   1.049   5.799   1.872 -0.4390  2.1621 -1.2075
  100POPC  H15C13282   1.178   5.858   1.966 -0.5480  0.8880  1.3498
  100POPC   C1113283   1.171   5.588   2.069 -0.2592  0.2572 -0.4613
  100POPC  H11A13284   1.205   5.607   2.173  0.6116  1.4352 -0.9394
  100POPC  H11B13285   1.238   5.635   1.994  1.2638 -0.0153  0.6915
  100POPC     P13286   1.128   5.339   2.151 -0.3456 -0.0539  0.2375
  100POPC   O1313287   1.107   5.203   2.084 -0.3708 -0.6193  0.4606
  100POPC   O1413288   1.012   5.390   2.227 -0.2303  0.5080 -0.0952
  100POPC   O1213289   1.178   5.444   2.044  0.2238  0.2252  0.2638
  100POPC   O1113290   1.260   5.322   2.235  0.4836 -0.8138  0.0011
  100POPC    C113291   1.275   5.221   2.336 -0.1459 -0.4464 -0.5586
  100POPC    HA13292   1.371   5.165   2.335  0.5181  0.6454 -0.0265
  100POPC    HB13293   1.195   5.146   2.320 -1.8206  1.1057  0.1271
  100POPC    C213294   1.261   5.284   2.480 -0.5946  0.3854 -0.3094
  100POPC    HS13295   1.300   5.215   2.557  1.3646  1.8268  0.0672
  100POPC   O2113296   1.126   5.317   2.505  0.0788  0.2917  0.0423
  100POPC   C2113297   1.040   5.221   2.540 -0.3860 -0.0164  0.1045
  100POPC   O2213298   1.066   5.099   2.551 -0.7465  0.3825  0.2695
  100POPC   C2213299   0.907   5.278   2.575  0.4909  0.3428  0.1262
  100POPC   H2R13300   0.830   5.197   2.567 -0.1480  1.0714 -1.7648
  100POPC   H2S13301   0.880   5.353   2.497  0.2349  0.6775  0.5348
  100POPC    C313302   1.336   5.425   2.490  0.4772  0.1524  0.0873
  100POPC    HX13303   1.264   5.504   2.457 -0.5045 -0.9320 -0.4538
  100POPC    HY13304   1.420   5.417   2.418  0.8400  1.6374  0.3060
  100POPC   O3113305   1.397   5.440   2.621 -0.2314  1.1082  0.2752
  100POPC   C3113306   1.328   5.505   2.715 -0.3480  0.1119  0.4958
  100POPC   O3213307   1.214   5.548   2.700 -0.1312  0.6880  0.1907
  100POPC   C3213308   1.392   5.502   2.854  0.0676  0.5261 -0.0286
  100POPC   H2X13309   1.499   5.480   2.836 -0.1326  0.5303 -1.2827
  100POPC   H2Y13310   1.331   5.432   2.916 -0.1709  0.3766 -0.4293
  100POPC   C2313311   0.908   5.347   2.715  0.3355 -0.0168 -0.1829
  100POPC   H3R13312   0.803   5.374   2.739  0.0777 -0.2217 -1.0553
  100POPC   H3S13313   0.966   5.441   2.712  0.8962 -0.3666 -0.4136
  100POPC   C2413314   0.971   5.259   2.823 -0.9975 -0.3235 -0.7620
  100POPC   H4R13315   1.081   5.255   2.805 -0.5802  1.2897  1.0554
  100POPC   H4S13316   0.922   5.160   2.827 -1.3997 -0.0671  1.8079
  100POPC   C2513317   0.961   5.319   2.966  0.6903  0.3555  0.5463
  100POPC   H5R13318   0.862   5.365   2.985  0.7526  0.7834 -0.1121
  100POPC   H5S13319   1.033   5.403   2.974 -2.2543  2.8979  4.1327
  100POPC   C2613320   0.979   5.217   3.079  0.0673 -0.7823 -0.2992
  100POPC   H6R13321   0.897   5.143   3.071 -0.8836  0.1590  0.5891
  100POPC   H6S13322   0.978   5.271   3.175  1.2137  1.7268 -1.6055
  100POPC   C2713323   1.109   5.136   3.075  0.6392  0.0630  0.1553
  100POPC   H7R13324   1.106   5.104   2.969 -0.9936  2.7456 -0.7088
  100POPC   H7S13325   1.093   5.040   3.129 -0.3389 -0.5948 -1.2306
  100POPC   C2813326   1.232   5.223   3.114 -0.0818  0.0990  0.1678
  100POPC   H8R13327   1.223   5.236   3.224 -1.5797  1.3116 -0.0735
  100POPC   H8S13328   1.216   5.326   3.076 -1.5601 -0.1161  0.1634
  100POPC   C2913329   1.358   5.160   3.061  0.1684 -0.4862 -0.0236
  100POPC   H9113330   1.412   5.225   2.991  1.3638 -1.9011 -0.4588
  100POPC  C21013331   1.417   5.037   3.082  0.2220 -0.3938 -0.1693
  100POPC  H10113332   1.511   5.023   3.028  0.6754 -2.2952  1.0116
  100POPC  C21113333   1.362   4.922   3.166  0.7266  0.0599  0.2503
  100POPC  H11R13334   1.324   4.842   3.099 -1.3360 -0.3700  1.8335
  100POPC  H11S13335   1.270   4.959   3.215  0.7529  0.3995  0.0451
  100POPC  C21213336   1.436   4.837   3.268  0.6572  0.1887 -0.0355
  100POPC  H12R13337   1.535   4.805   3.230  0.9917 -0.4718  1.3279
  100POPC  H12S13338   1.393   4.736   3.285  1.8733 -0.6602 -1.7076
  100POPC  C21313339   1.460   4.916   3.398  0.1093 -0.2446  0.0583
  100POPC  H13R13340   1.365   4.937   3.451  0.5899  0.4471  0.6784
  100POPC  H13S13341   1.490   5.021   3.376 -0.7295  0.0863  0.4562
  100POPC  C21413342   1.559   4.841   3.492 -0.5500  0.0053  0.2308
  100POPC  H14R13343   1.662   4.837   3.452 -0.6835 -2.4755 -0.0226
  100POPC  H14S13344   1.523   4.736   3.505 -0.6966  0.0551  0.2329
  100POPC  C21513345   1.574   4.903   3.639 -0.1409  0.4083  1.1060
  100POPC  H15R13346   1.619   4.822   3.701  2.6689  0.6725 -0.4375
  100POPC  H15S13347   1.465   4.910   3.659 -0.4911 -1.1264 -0.1070
  100POPC  C21613348   1.663   5.030   3.633  0.3093 -0.5495  0.1305
  100POPC  H16R13349   1.610   5.101   3.566  0.9616 -0.4817 -0.3294
  100POPC  H16S13350   1.757   4.996   3.585 -0.1914  0.0237 -1.3281
  100POPC  C21713351   1.703   5.081   3.773 -0.0350 -0.4699  0.1027
  100POPC  H17R13352   1.744   5.006   3.843  1.4240 -0.3517 -0.6014
  100POPC  H17S13353   1.607   5.108   3.822 -0.3369  3.3440 -2.1499
  100POPC  C21813354   1.799   5.207   3.772 -0.2170  0.3954  0.2301
  100POPC  H18R13355   1.787   5.266   3.866  1.2433  0.1912  0.5747
  100POPC  H18S13356   1.779   5.275   3.686 -0.7980  1.3828  1.1157
  100POPC  H18T13357   1.902   5.168   3.760 -1.2694 -2.3086 -0.8811
  100POPC   C3313358   1.377   5.643   2.925 -0.1073 -0.4474  0.4779
  100POPC   H3X13359   1.271   5.676   2.928 -0.7270 -2.3934  1.7623
  100POPC   H3Y13360   1.437   5.714   2.864 -1.0492 -0.3970 -0.4243
  100POPC   C3413361   1.428   5.643   3.073 -0.7766  0.8895  0.2110
  100POPC   H4X13362   1.391   5.738   3.119 -1.2745  0.4260  0.7917
  100POPC   H4Y13363   1.538   5.629   3.076 -0.9703 -0.8002 -0.0607
  100POPC   C3513364   1.364   5.536   3.166 -0.7690  0.4022  0.1980
  100POPC   H5X13365   1.401   5.438   3.127 -1.0485  0.0545  0.8025
  100POPC   H5Y13366   1.254   5.539   3.150 -1.1953 -1.6359  2.3082
  100POPC   C3613367   1.400   5.541   3.311 -0.3734 -0.0101  0.2526
  100POPC   H6X13368   1.347   5.630   3.352 -0.5129  0.0422 -0.0395
  100POPC   H6Y13369   1.508   5.562   3.322 -0.9000  2.3066  1.9905
  100POPC   C3713370   1.357   5.419   3.392  0.5339 -0.8568 -0.8752
  100POPC   H7X13371   1.405   5.328   3.348 -0.8217 -1.1445 -1.8293
  100POPC   H7Y13372   1.247   5.409   3.390  0.2608  0.1890  2.6484
  100POPC   C3813373   1.403   5.422   3.542 -0.6366 -1.2018 -0.7694
  100POPC   H8X13374   1.361   5.513   3.589  1.5744 -0.2902 -0.4041
  100POPC   H8Y13375   1.511   5.446   3.557 -1.5898  2.3710  1.6594
  100POPC   C3913376   1.363   5.297   3.619 -0.3598  0.5516  0.5087
  100POPC   H9X13377   1.390   5.208   3.559  0.2843  0.7860  0.4476
  100POPC   H9Y13378   1.252   5.299   3.613 -0.2670  0.7540 -2.1668
  100POPC  C31013379   1.407   5.295   3.763 -0.1429 -0.3628 -0.3488
  100POPC  H10X13380   1.370   5.386   3.815 -1.3643 -0.6653 -0.6555
  100POPC  H10Y13381   1.518   5.287   3.767 -0.1028 -1.2162 -2.1105
  100POPC  C31113382   1.345   5.187   3.848  0.1137  0.1233 -0.5783
  100POPC  H11X13383   1.383   5.086   3.821 -1.0187 -0.0730 -1.5549
  100POPC  H11Y13384   1.235   5.180   3.831 -0.2830  0.5888  1.5176
  100POPC  C31213385   1.364   5.223   3.994 -0.3969  0.6870 -0.6366
  100POPC  H12X13386   1.305   5.153   4.057  1.8229 -0.6716  0.0258
  100POPC  H12Y13387   1.327   5.325   4.020 -0.1604  0.6061  0.0325
  100POPC  C31313388   1.514   5.216   4.037  0.3309 -0.7725 -0.1995
  100POPC  H13X13389   1.568   5.297   3.983 -1.4803  0.8731  0.3604
  100POPC  H13Y13390   1.558   5.117   4.012  0.3930 -0.2762 -2.2154
  100POPC  C31413391   1.545   5.219   4.192  0.0600 -0.2737  0.1489
  100POPC  H14X13392   1.467   5.156   4.240  0.4667 -1.4370 -0.6732
  100POPC  H14Y13393   1.526   5.325   4.221  0.5682 -0.4761  1.2625
  100POPC  C31513394   1.682   5.178   4.234 -0.5400 -0.3373  0.1424
  100POPC  H15X13395   1.685   5.070   4.207 -0.1551 -0.1784 -0.4851
  100POPC  H15Y13396   1.695   5.181   4.344  0.2234 -1.3701  0.0887
  100POPC  C31613397   1.803   5.243   4.172 -0.0195 -0.6822 -0.1103
  100POPC  H16X13398   1.762   5.298   4.085 -0.1253 -0.0966  0.3080
  100POPC  H16Y13399   1.877   5.178   4.120  0.4979 -0.2752  0.1146
  100POPC  H16Z13400   1.853   5.315   4.240  2.7798 -3.6808  1.3023
  101POPC     N13401   1.137   4.757   2.458  0.7252  0.2201  0.4492
  101POPC   C1213402   1.027   4.834   2.533  0.0677  0.6272  0.6463
  101POPC  H12A13403   1.015   4.926   2.478  0.4153  1.2102  1.5225
  101POPC  H12B13404   1.063   4.877   2.625  3.2066 -0.4809  0.0817
  101POPC   C1313405   1.190   4.642   2.541  0.4381 -0.0023 -0.2886
  101POPC  H13A13406   1.101   4.587   2.570 -0.0777  0.5646 -0.7601
  101POPC  H13B13407   1.264   4.580   2.494 -0.2171  0.2756 -1.7234
  101POPC  H13C13408   1.228   4.681   2.634 -0.1974 -0.1890  0.0580
  101POPC   C1413409   1.087   4.696   2.335 -0.0610 -0.0238  0.1266
  101POPC  H14A13410   1.020   4.762   2.282 -0.1388 -1.4761 -1.7307
  101POPC  H14B13411   1.166   4.663   2.269  2.9682  3.2239  1.8528
  101POPC  H14C13412   1.027   4.608   2.357  0.5496 -0.2763  0.8093
  101POPC   C1513413   1.243   4.850   2.421 -0.9963  0.7303 -0.1382
  101POPC  H15A13414   1.203   4.926   2.356 -2.0431  0.6755  0.4253
  101POPC  H15B13415   1.311   4.801   2.352 -0.7175 -0.8969  1.2288
  101POPC  H15C13416   1.294   4.895   2.505  0.5928  0.2265 -0.7793
  101POPC   C1113417   0.888   4.774   2.561 -0.2122 -0.3672  0.6626
  101POPC  H11A13418   0.830   4.856   2.608 -0.5841 -0.1751 -0.1126
  101POPC  H11B13419   0.885   4.689   2.633  0.1405 -1.2933 -0.3997
  101POPC     P13420   0.713   4.643   2.430  0.1683 -0.4245 -0.3422
  101POPC   O1313421   0.744   4.511   2.483  0.7226  0.2043 -0.5252
  101POPC   O1413422   0.652   4.646   2.293  0.5977 -0.1792 -0.1242
  101POPC   O1213423   0.827   4.740   2.441  0.1146 -0.2005  0.3282
  101POPC   O1113424   0.619   4.715   2.533 -0.2651 -1.0898  0.0553
  101POPC    C113425   0.496   4.658   2.568 -0.2007 -0.0209 -0.2447
  101POPC    HA13426   0.508   4.555   2.607 -0.4838  0.4063  1.0096
  101POPC    HB13427   0.421   4.644   2.486 -1.7464  2.1955  0.6821
  101POPC    C213428   0.418   4.732   2.682  0.4107  0.0980 -0.6932
  101POPC    HS13429   0.408   4.834   2.639  0.1894  1.2281  1.9146
  101POPC   O2113430   0.502   4.717   2.797  0.2023 -0.3145  0.1010
  101POPC   C2113431   0.495   4.821   2.879  0.9717 -0.1659  0.3485
  101POPC   O2213432   0.414   4.916   2.861 -0.0166 -0.6218  0.1039
  101POPC   C2213433   0.597   4.815   2.995 -0.1258 -0.2396  0.0554
  101POPC   H2R13434   0.696   4.808   2.944 -0.1836  2.9950 -0.7362
  101POPC   H2S13435   0.587   4.717   3.044  0.4106  0.5983  1.9140
  101POPC    C313436   0.276   4.667   2.700  0.3718  0.1723  0.3555
  101POPC    HX13437   0.212   4.678   2.610 -0.7779 -0.2614  1.1014
  101POPC    HY13438   0.222   4.739   2.765 -1.2349 -0.2732 -0.4329
  101POPC   O3113439   0.284   4.526   2.749  0.1033 -0.0189  0.1103
  101POPC   C3113440   0.174   4.492   2.811 -0.0833  0.2915 -0.2923
  101POPC   O3213441   0.070   4.555   2.826 -0.1667  0.4674  0.3004
  101POPC   C3213442   0.193   4.347   2.860 -0.0912  0.0005 -0.3053
  101POPC   H2X13443   0.254   4.298   2.781  0.7564  2.1510 -1.0596
  101POPC   H2Y13444   0.103   4.284   2.871  1.5739 -2.2667  1.4982
  101POPC   C2313445   0.578   4.926   3.102  0.2136 -0.5436  0.1737
  101POPC   H3R13446   0.472   4.946   3.129  0.0197 -0.5222 -0.5973
  101POPC   H3S13447   0.622   5.020   3.065 -0.3980 -0.8726 -1.4669
  101POPC   C2413448   0.639   4.874   3.234  0.1044  0.2810  0.0991
  101POPC   H4R13449   0.590   4.776   3.252  0.3749  0.2239  0.5209
  101POPC   H4S13450   0.611   4.951   3.310 -3.3666  0.0586 -0.7647
  101POPC   C2513451   0.790   4.844   3.208  0.8223  0.3260  0.7362
  101POPC   H5R13452   0.836   4.896   3.121  2.2414 -2.6817 -0.4604
  101POPC   H5S13453   0.799   4.736   3.183 -0.7404  0.3468  0.0036
  101POPC   C2613454   0.883   4.868   3.324  0.4402 -0.4296 -0.0865
  101POPC   H6R13455   0.988   4.857   3.288  0.8515  0.8238  0.6724
  101POPC   H6S13456   0.857   4.785   3.393 -2.1171 -1.5079 -2.1511
  101POPC   C2713457   0.881   5.006   3.387  0.5158 -0.8974 -0.3279
  101POPC   H7R13458   0.789   5.021   3.447 -0.5126 -1.3864 -1.7273
  101POPC   H7S13459   0.886   5.080   3.304 -1.0349 -0.7214 -0.2815
  101POPC   C2813460   1.000   5.027   3.484 -0.0700 -0.7071 -0.4765
  101POPC   H8R13461   1.088   5.000   3.421  0.6094  0.9357 -0.2924
  101POPC   H8S13462   0.980   4.948   3.559 -2.0991  0.4920  0.3106
  101POPC   C2913463   1.024   5.163   3.531 -0.1188  0.5047  0.0335
  101POPC   H9113464   1.067   5.237   3.462 -1.3766  0.6343 -0.6400
  101POPC  C21013465   0.982   5.206   3.654  0.1840  0.2780 -0.8107
  101POPC  H10113466   1.006   5.307   3.692 -2.2806  0.2501  1.1082
  101POPC  C21113467   0.912   5.134   3.760  0.4163  0.4669 -0.4634
  101POPC  H11R13468   0.963   5.165   3.854  0.5978  0.4740 -0.5626
  101POPC  H11S13469   0.923   5.024   3.755 -1.0691  0.2456  0.5641
  101POPC  C21213470   0.762   5.165   3.770 -0.0819  0.2424 -0.2089
  101POPC  H12R13471   0.711   5.185   3.674 -0.6210  0.7397  0.1763
  101POPC  H12S13472   0.760   5.260   3.828 -0.0337 -0.9951  1.9205
  101POPC  C21313473   0.678   5.061   3.850 -0.2382 -0.3376  0.0711
  101POPC  H13R13474   0.707   5.067   3.957 -0.0026 -0.6806  0.0282
  101POPC  H13S13475   0.688   4.958   3.811  1.7009 -0.4941  0.8786
  101POPC  C21413476   0.535   5.101   3.836 -0.2201  0.2629 -0.2238
  101POPC  H14R13477   0.505   5.088   3.730 -0.7508 -0.6470  0.0225
  101POPC  H14S13478   0.518   5.206   3.869 -0.8770  1.1967 -3.2248
  101POPC  C21513479   0.441   5.012   3.919 -0.4960 -0.0785  0.1651
  101POPC  H15R13480   0.431   5.039   4.026  0.4119 -1.6051  0.6734
  101POPC  H15S13481   0.463   4.903   3.918 -0.2529 -0.0332  0.5668
  101POPC  C21613482   0.301   5.026   3.846  0.4571  0.2989  0.4949
  101POPC  H16R13483   0.311   4.982   3.745  1.9802  1.0860  0.2681
  101POPC  H16S13484   0.283   5.136   3.837 -1.8112 -0.1668 -2.0249
  101POPC  C21713485   0.194   4.947   3.916  0.0579 -0.2126 -0.4062
  101POPC  H17R13486   0.195   4.984   4.021  0.7421  0.2302 -0.5652
  101POPC  H17S13487   0.236   4.844   3.922  0.3639 -0.0731 -0.1071
  101POPC  C21813488   0.053   4.952   3.846 -0.0313 -0.6348  0.2389
  101POPC  H18R13489   0.068   4.892   3.754  0.3159 -1.3151  0.7332
  101POPC  H18S13490   0.020   5.058   3.832 -1.4965 -1.2870 -1.7190
  101POPC  H18T13491  -0.019   4.900   3.912 -0.5724 -2.3235 -1.5925
  101POPC   C3313492   0.257   4.356   2.999 -0.2574  1.3244 -0.0871
  101POPC   H3X13493   0.211   4.273   3.057 -0.2924  1.5600  0.2274
  101POPC   H3Y13494   0.217   4.453   3.038  0.1561  0.4915  2.6108
  101POPC   C3413495   0.410   4.330   2.995 -0.4211 -0.9083 -0.2390
  101POPC   H4X13496   0.455   4.399   2.920  2.5287 -0.6243  1.6023
  101POPC   H4Y13497   0.431   4.228   2.957 -0.9906 -1.0703 -0.1190
  101POPC   C3513498   0.466   4.348   3.139 -0.6067 -0.6489  0.0495
  101POPC   H5X13499   0.441   4.260   3.202  0.9226  1.0945  3.3703
  101POPC   H5Y13500   0.430   4.438   3.194  1.9264 -0.5725  1.7715
  101POPC   C3613501   0.612   4.335   3.149 -0.2966 -0.2116 -0.4584
  101POPC   H6X13502   0.652   4.414   3.081 -2.6236 -0.7723 -2.6350
  101POPC   H6Y13503   0.640   4.236   3.108 -0.5804 -0.0113 -1.1577
  101POPC   C3713504   0.674   4.337   3.287  0.4661  0.5304  0.3014
  101POPC   H7X13505   0.640   4.252   3.349 -1.3724  0.1478 -1.1398
  101POPC   H7Y13506   0.655   4.430   3.345 -1.1843  3.5175 -4.4188
  101POPC   C3813507   0.825   4.310   3.282  0.6876  0.5120 -0.1193
  101POPC   H8X13508   0.844   4.221   3.219  0.0739 -0.5137  1.0967
  101POPC   H8Y13509   0.860   4.286   3.384 -2.5442 -1.1888  0.7151
  101POPC   C3913510   0.893   4.417   3.208 -0.6983  0.3464  0.2750
  101POPC   H9X13511   0.863   4.514   3.253  0.2317 -0.2533  2.2986
  101POPC   H9Y13512   0.863   4.418   3.101 -0.6458  1.0710  0.2630
  101POPC  C31013513   1.048   4.389   3.199  0.4494  0.4236 -1.1403
  101POPC  H10X13514   1.088   4.468   3.132  0.7051  1.2633 -0.0276
  101POPC  H10Y13515   1.059   4.286   3.159  0.3033  0.0166 -0.1656
  101POPC  C31113516   1.105   4.389   3.341  0.2551 -0.0164 -0.7142
  101POPC  H11X13517   1.213   4.364   3.328  0.6328 -0.3001  2.3818
  101POPC  H11Y13518   1.068   4.301   3.398  1.0528 -0.3155 -0.6389
  101POPC  C31213519   1.102   4.517   3.415  0.3473  0.3311 -0.4300
  101POPC  H12X13520   0.998   4.556   3.417 -0.4641 -1.6863 -0.7151
  101POPC  H12Y13521   1.168   4.588   3.360 -0.8204  0.4611 -1.7109
  101POPC  C31313522   1.152   4.525   3.561  0.1492 -0.2537 -0.1518
  101POPC  H13X13523   1.250   4.474   3.572 -0.2466 -0.9433  0.2929
  101POPC  H13Y13524   1.079   4.463   3.619  0.6175  0.2614  1.0298
  101POPC  C31413525   1.161   4.665   3.616 -0.3390 -0.6453  0.5840
  101POPC  H14X13526   1.070   4.725   3.596  1.0966  1.5721  0.3133
  101POPC  H14Y13527   1.241   4.723   3.566 -0.2982 -0.3194  1.0169
  101POPC  C31513528   1.215   4.675   3.759 -0.2453 -0.1900  0.1923
  101POPC  H15X13529   1.312   4.621   3.752 -0.0646  0.2673 -1.2117
  101POPC  H15Y13530   1.146   4.615   3.822 -1.5041  0.8578 -0.1197
  101POPC  C31613531   1.220   4.819   3.812 -0.2874 -0.4877  0.7893
  101POPC  H16X13532   1.272   4.822   3.910  2.3722 -1.5566 -0.4799
  101POPC  H16Y13533   1.118   4.864   3.815  0.3890  1.2498 -0.2151
  101POPC  H16Z13534   1.290   4.866   3.739 -1.0589  3.6850  2.4332
  102POPC     N13535   1.191   1.431   2.265  0.1270  0.5837  0.5539
  102POPC   C1213536   1.178   1.528   2.379 -0.2422  0.4194  0.1402
  102POPC  H12A13537   1.209   1.623   2.340 -0.2090  0.8744  1.2191
  102POPC  H12B13538   1.256   1.511   2.453  0.6327 -2.2485 -1.2643
  102POPC   C1313539   1.339   1.403   2.236  0.2171 -0.1626 -0.6046
  102POPC  H13A13540   1.391   1.369   2.324 -1.1849 -0.8155  0.0039
  102POPC  H13B13541   1.357   1.327   2.162 -0.1050 -0.4465 -0.3912
  102POPC  H13C13542   1.389   1.487   2.190  0.6089 -1.5995 -2.9602
  102POPC   C1413543   1.135   1.300   2.308  0.0876  0.4694 -0.1231
  102POPC  H14A13544   1.027   1.289   2.309 -0.0605  1.2842  2.8269
  102POPC  H14B13545   1.180   1.236   2.235  0.1454  0.3197  0.0428
  102POPC  H14C13546   1.161   1.277   2.411 -0.2994 -0.5524 -0.2413
  102POPC   C1513547   1.121   1.468   2.139 -0.1659 -0.1364 -0.1143
  102POPC  H15A13548   1.017   1.499   2.145 -0.8948 -2.3065 -0.4782
  102POPC  H15B13549   1.123   1.390   2.064 -2.7130 -0.2071 -0.1950
  102POPC  H15C13550   1.168   1.554   2.094 -0.8365 -0.2689 -1.1186
  102POPC   C1113551   1.042   1.532   2.455 -0.2174  0.5101  0.0273
  102POPC  H11A13552   1.048   1.629   2.508  2.4935  1.0555 -1.0885
  102POPC  H11B13553   1.041   1.460   2.540 -0.2778  1.6860  1.0467
  102POPC     P13554   0.810   1.451   2.390  0.2401 -0.0160 -0.3138
  102POPC   O1313555   0.855   1.309   2.392  0.1227  0.3301  0.5415
  102POPC   O1413556   0.712   1.490   2.288  0.3054  0.7794  0.2549
  102POPC   O1213557   0.933   1.541   2.370  0.1186  0.4164  0.1063
  102POPC   O1113558   0.759   1.488   2.538 -0.2663  0.4707  0.2391
  102POPC    C113559   0.735   1.622   2.576  0.3282  0.1927  1.2085
  102POPC    HA13560   0.641   1.665   2.535 -0.0347  0.7562  2.5640
  102POPC    HB13561   0.817   1.690   2.544  1.5738 -1.2048  1.3194
  102POPC    C213562   0.718   1.639   2.726 -0.2023 -0.1027 -0.0769
  102POPC    HS13563   0.678   1.740   2.747 -0.3730 -0.5474  2.0598
  102POPC   O2113564   0.829   1.604   2.809 -0.2999 -0.2224 -0.2315
  102POPC   C2113565   0.929   1.690   2.801  0.4151  0.2959 -0.4128
  102POPC   O2213566   0.941   1.783   2.726  0.3246  0.3983  0.8115
  102POPC   C2213567   1.033   1.621   2.889 -0.2587  0.2415 -0.3524
  102POPC   H2R13568   1.101   1.572   2.816 -1.1717 -0.2608 -0.8835
  102POPC   H2S13569   0.993   1.532   2.940 -1.8712 -0.2408 -2.3112
  102POPC    C313570   0.606   1.550   2.774  0.0614  0.4054 -0.4231
  102POPC    HX13571   0.633   1.447   2.740  0.7252  0.0618  1.0688
  102POPC    HY13572   0.507   1.560   2.724 -1.3967  1.0331  2.3679
  102POPC   O3113573   0.583   1.570   2.914  0.3013  0.4143  0.8321
  102POPC   C3113574   0.636   1.474   2.997  0.2958 -0.4962 -0.2105
  102POPC   O3213575   0.683   1.368   2.964 -0.2255 -0.0279 -0.1346
  102POPC   C3213576   0.620   1.528   3.144 -0.3935  0.4788 -0.2687
  102POPC   H2X13577   0.512   1.552   3.157 -0.1492  0.9845  1.0181
  102POPC   H2Y13578   0.680   1.621   3.158  1.6442 -0.9128  0.8867
  102POPC   C2313579   1.110   1.718   2.989 -0.4240  0.3037 -0.0419
  102POPC   H3R13580   1.156   1.804   2.938  1.1778 -0.6793 -0.3261
  102POPC   H3S13581   1.203   1.665   3.019  0.5836  0.2618 -2.9775
  102POPC   C2413582   1.027   1.753   3.111 -0.1594  0.4726 -0.1693
  102POPC   H4R13583   0.981   1.662   3.154 -3.3457  0.7027 -2.6806
  102POPC   H4S13584   0.940   1.819   3.088 -0.0743  0.2767 -1.0681
  102POPC   C2513585   1.125   1.824   3.209 -0.1429  0.7472 -0.7421
  102POPC   H5R13586   1.187   1.746   3.258  0.1823  1.8106  0.6069
  102POPC   H5S13587   1.064   1.864   3.293 -0.3290 -0.8586 -0.0770
  102POPC   C2613588   1.200   1.944   3.141  0.0652  0.2544  0.0364
  102POPC   H6R13589   1.120   1.995   3.083  0.6828 -0.0419 -1.1041
  102POPC   H6S13590   1.283   1.921   3.072 -0.4782 -2.2743  0.1308
  102POPC   C2713591   1.252   2.043   3.246 -0.1134  0.1591 -0.4261
  102POPC   H7R13592   1.171   2.088   3.309 -0.0587 -0.2623 -0.0526
  102POPC   H7S13593   1.287   2.138   3.201 -0.2570 -0.3444 -1.6420
  102POPC   C2813594   1.364   1.993   3.337 -0.0260 -0.4638  0.6559
  102POPC   H8R13595   1.442   1.963   3.264  0.6201  1.8740  0.3175
  102POPC   H8S13596   1.328   1.899   3.385 -3.3663  1.0905  1.5250
  102POPC   C2913597   1.429   2.093   3.435 -0.1820  0.0763  0.6630
  102POPC   H9113598   1.470   2.184   3.389 -0.6723  0.6391  1.3105
  102POPC  C21013599   1.426   2.087   3.570 -0.0814  0.0343  0.2644
  102POPC  H10113600   1.488   2.163   3.618  1.4200 -0.6288 -0.5369
  102POPC  C21113601   1.355   1.999   3.663  0.2957 -0.3062 -0.1879
  102POPC  H11R13602   1.431   1.945   3.723 -0.4361 -0.3220  0.7612
  102POPC  H11S13603   1.298   1.923   3.605 -1.3238  0.6793  0.0333
  102POPC  C21213604   1.260   2.080   3.757 -0.3438 -0.1022  0.4053
  102POPC  H12R13605   1.211   2.017   3.834 -3.3091  1.1683 -0.3239
  102POPC  H12S13606   1.178   2.125   3.697 -0.9166 -1.5658  0.0373
  102POPC  C21313607   1.317   2.205   3.829 -0.3878  0.0747  0.0803
  102POPC  H13R13608   1.335   2.288   3.757  1.8700 -0.0859  0.3884
  102POPC  H13S13609   1.413   2.172   3.873  0.4172 -0.3266 -1.8730
  102POPC  C21413610   1.227   2.264   3.941 -0.5780  0.1840  0.3020
  102POPC  H14R13611   1.189   2.186   4.011 -1.4951  0.4555  0.1158
  102POPC  H14S13612   1.136   2.301   3.890  1.1100  1.3847 -2.0259
  102POPC  C21513613   1.306   2.363   4.027 -0.1130 -0.2350 -0.2447
  102POPC  H15R13614   1.344   2.442   3.960 -2.5163  1.2342  0.0283
  102POPC  H15S13615   1.394   2.303   4.060 -0.9147 -1.1447  0.3116
  102POPC  C21613616   1.227   2.405   4.152 -0.8815  0.3468  0.1998
  102POPC  H16R13617   1.175   2.310   4.177 -0.4759 -0.4444 -1.7140
  102POPC  H16S13618   1.155   2.485   4.127 -1.1313  0.4821  1.3070
  102POPC  C21713619   1.315   2.458   4.268 -0.6658 -0.1002  0.3057
  102POPC  H17R13620   1.349   2.559   4.237 -0.7418 -0.1694  0.0018
  102POPC  H17S13621   1.399   2.387   4.285  0.5094  0.8708 -1.2296
  102POPC  C21813622   1.233   2.469   4.395 -0.8677  0.6986 -0.4928
  102POPC  H18R13623   1.185   2.371   4.417 -1.4420  1.2552  0.8673
  102POPC  H18S13624   1.148   2.538   4.380 -1.2304  0.4273  0.2478
  102POPC  H18T13625   1.304   2.501   4.474  0.8491  0.5058 -1.8915
  102POPC   C3313626   0.660   1.430   3.260 -0.0966  0.3221  0.1120
  102POPC   H3X13627   0.766   1.400   3.267 -0.5026 -0.7334  2.9647
  102POPC   H3Y13628   0.593   1.342   3.252 -0.0963  0.3112  0.2269
  102POPC   C3413629   0.615   1.486   3.395  0.2039  0.4711  0.2453
  102POPC   H4X13630   0.629   1.403   3.467  0.1487 -0.2556 -0.5588
  102POPC   H4Y13631   0.505   1.499   3.387  0.0011 -1.2601 -0.1510
  102POPC   C3513632   0.690   1.608   3.446  0.2428  0.1160  0.2423
  102POPC   H5X13633   0.642   1.644   3.540  0.8107  0.8069  0.2744
  102POPC   H5Y13634   0.699   1.693   3.375 -0.3569 -0.1266 -0.1359
  102POPC   C3613635   0.831   1.569   3.501  0.2478 -0.7023 -0.2284
  102POPC   H6X13636   0.880   1.525   3.411 -1.9176  0.4181 -2.0595
  102POPC   H6Y13637   0.826   1.497   3.586  1.3788 -1.8816 -1.1161
  102POPC   C3713638   0.920   1.696   3.525  0.0509 -0.2240 -0.8246
  102POPC   H7X13639   0.918   1.766   3.438  0.9167  0.3943 -0.3653
  102POPC   H7Y13640   1.026   1.667   3.538  0.7347  0.7946 -3.3793
  102POPC   C3813641   0.883   1.775   3.648 -0.2206 -0.0176 -0.0464
  102POPC   H8X13642   0.775   1.802   3.641 -0.3593 -0.6127 -0.2271
  102POPC   H8Y13643   0.944   1.868   3.644 -0.2166  0.1227  2.2888
  102POPC   C3913644   0.917   1.714   3.787  0.3098  0.0507  0.1858
  102POPC   H9X13645   1.028   1.719   3.786  0.3394 -0.5388  0.5473
  102POPC   H9Y13646   0.904   1.604   3.791 -0.4922  0.1436  0.3511
  102POPC  C31013647   0.856   1.788   3.907 -0.6807 -0.5532  0.2370
  102POPC  H10X13648   0.875   1.744   4.007 -2.4599 -2.1840 -0.0814
  102POPC  H10Y13649   0.746   1.773   3.901 -0.8966  1.1121 -0.5165
  102POPC  C31113650   0.876   1.942   3.918  1.0651  0.0158 -0.9273
  102POPC  H11X13651   0.842   1.993   3.826  1.6860  0.3251 -0.9881
  102POPC  H11Y13652   0.984   1.961   3.937  0.9388 -0.8007  0.8881
  102POPC  C31213653   0.808   2.004   4.042  0.1985  0.5553  0.3790
  102POPC  H12X13654   0.863   1.968   4.132 -1.6087 -2.4630  0.4145
  102POPC  H12Y13655   0.701   1.975   4.038  0.7643 -1.6613 -2.8880
  102POPC  C31313656   0.809   2.158   4.039  0.0067  0.2538 -0.3099
  102POPC  H13X13657   0.859   2.201   3.949  1.6625  1.0477  0.9413
  102POPC  H13Y13658   0.876   2.180   4.124 -1.4916 -0.1811  1.0366
  102POPC  C31413659   0.675   2.224   4.066  0.4641 -0.8469  0.0991
  102POPC  H14X13660   0.688   2.328   4.103 -4.0484  0.4353 -1.2365
  102POPC  H14Y13661   0.618   2.168   4.143  0.5687 -1.3366 -0.1729
  102POPC  C31513662   0.591   2.248   3.941 -0.0025 -0.4098 -0.1558
  102POPC  H15X13663   0.659   2.308   3.877  3.1417 -2.5907  0.8927
  102POPC  H15Y13664   0.503   2.307   3.974 -0.1118 -1.0541  0.7615
  102POPC  C31613665   0.547   2.123   3.867  0.3182  0.1161  0.3021
  102POPC  H16X13666   0.483   2.055   3.928 -0.2599 -1.5479 -2.0418
  102POPC  H16Y13667   0.636   2.067   3.833  0.6783  0.8555  0.0220
  102POPC  H16Z13668   0.487   2.139   3.775 -0.1286 -1.2760  0.3181
  103POPC     N13669   1.546   0.637   2.511  0.2606 -0.9403  0.3412
  103POPC   C1213670   1.504   0.514   2.593 -0.5261  0.3770 -0.3530
  103POPC  H12A13671   1.434   0.456   2.534 -1.3933  1.5575 -0.5220
  103POPC  H12B13672   1.439   0.550   2.671 -1.3621 -2.2847  0.2764
  103POPC   C1313673   1.637   0.716   2.586 -0.0184  0.2222  0.3652
  103POPC  H13A13674   1.652   0.811   2.537 -1.2132  0.1621 -0.1683
  103POPC  H13B13675   1.610   0.726   2.690  2.4246  1.6634  0.9395
  103POPC  H13C13676   1.735   0.674   2.596  0.0424  0.1479 -0.4641
  103POPC   C1413677   1.604   0.606   2.379 -0.5170 -0.5482 -1.0054
  103POPC  H14A13678   1.657   0.690   2.337  0.5427  0.3560  1.8536
  103POPC  H14B13679   1.681   0.530   2.391 -0.6435 -0.2604  3.4939
  103POPC  H14C13680   1.534   0.565   2.308  1.0040  0.7176 -3.3711
  103POPC   C1513681   1.430   0.722   2.496  0.5006 -0.3049  0.0334
  103POPC  H15A13682   1.351   0.687   2.430  0.1777  2.8613 -1.4292
  103POPC  H15B13683   1.442   0.818   2.448 -1.4809 -0.1443 -0.2548
  103POPC  H15C13684   1.382   0.736   2.591  0.3100  0.4313 -0.1669
  103POPC   C1113685   1.615   0.424   2.651  0.6181 -0.2934  0.2120
  103POPC  H11A13686   1.566   0.341   2.706  0.9825  0.2037  1.3142
  103POPC  H11B13687   1.672   0.488   2.722  0.4555  1.8237 -1.4694
  103POPC     P13688   1.661   0.257   2.466  0.4822 -0.2886  0.2902
  103POPC   O1313689   1.758   0.234   2.360  0.8534  0.3178 -0.0277
  103POPC   O1413690   1.519   0.279   2.423  0.0084 -0.0206  0.1884
  103POPC   O1213691   1.707   0.376   2.552 -0.2273  0.2124  0.1918
  103POPC   O1113692   1.665   0.134   2.566 -0.2712 -0.1248  0.0992
  103POPC    C113693   1.771   0.130   2.663  0.3150 -0.2773  0.0543
  103POPC    HA13694   1.825   0.223   2.690  0.5327 -0.3922  0.0148
  103POPC    HB13695   1.845   0.061   2.617  0.1324 -0.3891 -0.0767
  103POPC    C213696   1.716   0.059   2.790  0.7271  0.4310 -0.5292
  103POPC    HS13697   1.723  -0.050   2.771  1.7643  0.9565 -3.7703
  103POPC   O2113698   1.593   0.111   2.828 -0.0930  0.1529  0.0272
  103POPC   C2113699   1.485   0.024   2.804 -0.2070 -0.8625 -0.1796
  103POPC   O2213700   1.500  -0.091   2.767  0.7700 -0.8144  0.4466
  103POPC   C2213701   1.351   0.089   2.849  1.1529 -0.8574  1.1355
  103POPC   H2R13702   1.272   0.085   2.771 -0.9778 -0.0765  3.1602
  103POPC   H2S13703   1.359   0.192   2.889 -0.2102 -0.3088  0.0801
  103POPC    C313704   1.811   0.092   2.908 -0.0331 -0.3162  0.1025
  103POPC    HX13705   1.789   0.192   2.951 -1.1654 -0.4194 -0.2118
  103POPC    HY13706   1.912   0.084   2.863 -0.8189 -1.9388 -1.4883
  103POPC   O3113707   1.803  -0.009   3.013 -0.5591 -0.2634 -0.0753
  103POPC   C3113708   1.871   0.019   3.119 -0.6039  0.1337 -0.2984
  103POPC   O3213709   1.959   0.101   3.125 -0.3810 -0.7392 -0.5935
  103POPC   C3213710   1.839  -0.072   3.236  0.5083  0.6055  0.2568
  103POPC   H2X13711   1.923  -0.144   3.247  0.9586  1.3277  1.7022
  103POPC   H2Y13712   1.743  -0.124   3.210  0.1579  0.8992  0.9533
  103POPC   C2313713   1.306   0.013   2.982  0.5950  0.1681 -0.1083
  103POPC   H3R13714   1.285  -0.093   2.957 -0.3352  0.2984  0.0917
  103POPC   H3S13715   1.207   0.060   2.999 -0.1098 -1.3254  0.0492
  103POPC   C2413716   1.410   0.023   3.091 -0.4413 -0.2521  0.1137
  103POPC   H4R13717   1.467   0.119   3.099  1.4820 -1.4223  1.4654
  103POPC   H4S13718   1.497  -0.042   3.068  0.6384  0.7594  1.1651
  103POPC   C2513719   1.348  -0.009   3.219  0.4404 -0.1421  0.0929
  103POPC   H5R13720   1.429  -0.002   3.294  3.7631  1.7938 -3.3350
  103POPC   H5S13721   1.322  -0.116   3.229 -1.3619  0.2863  0.3795
  103POPC   C2613722   1.219   0.082   3.260 -0.7195 -0.1937 -0.1670
  103POPC   H6R13723   1.129   0.053   3.201 -0.1303 -2.8426  0.1197
  103POPC   H6S13724   1.258   0.181   3.228 -1.3751  0.7820  1.9162
  103POPC   C2713725   1.188   0.091   3.414 -0.2870 -0.0350 -0.1676
  103POPC   H7R13726   1.162   0.198   3.423 -0.6647 -0.2844  2.2822
  103POPC   H7S13727   1.286   0.070   3.464 -1.0633 -0.6699  1.1457
  103POPC   C2813728   1.078  -0.010   3.458 -0.2468 -0.2419  0.0870
  103POPC   H8R13729   1.113  -0.110   3.425  1.2137  0.6512 -1.2047
  103POPC   H8S13730   0.984   0.019   3.406 -0.7989 -1.8459  0.1537
  103POPC   C2913731   1.072   0.004   3.614 -1.3159 -0.0230  0.3646
  103POPC   H9113732   1.153  -0.057   3.657 -1.1584 -1.4669 -1.7889
  103POPC  C21013733   0.980   0.060   3.696  0.4504 -0.3440 -0.1671
  103POPC  H10113734   0.982   0.040   3.804 -4.0319 -0.0617  0.1566
  103POPC  C21113735   0.849   0.126   3.647 -0.3658 -0.0160 -0.5485
  103POPC  H11R13736   0.762   0.069   3.685 -1.6673  3.3214  1.9031
  103POPC  H11S13737   0.847   0.135   3.536 -1.8503 -1.9612 -0.7357
  103POPC  C21213738   0.849   0.266   3.714 -0.2651 -0.3070  0.0463
  103POPC  H12R13739   0.938   0.321   3.677 -0.4905  1.2689  1.6660
  103POPC  H12S13740   0.854   0.265   3.825 -0.9190  1.2533  0.1239
  103POPC  C21313741   0.725   0.361   3.695 -0.4636 -0.0106  0.3210
  103POPC  H13R13742   0.634   0.302   3.719  0.8848 -1.8758  1.1562
  103POPC  H13S13743   0.724   0.403   3.592 -0.1581  1.2038  0.8009
  103POPC  C21413744   0.737   0.483   3.788  0.5192 -0.1438 -0.3090
  103POPC  H14R13745   0.745   0.445   3.892  1.1414 -0.2135 -0.3773
  103POPC  H14S13746   0.648   0.546   3.768  1.0571  0.0406 -2.3855
  103POPC  C21513747   0.868   0.566   3.762  0.0600 -1.4237  0.1353
  103POPC  H15R13748   0.861   0.620   3.665  1.7634  2.2425  1.8752
  103POPC  H15S13749   0.960   0.506   3.782  1.9106  1.7341  1.8106
  103POPC  C21613750   0.882   0.681   3.869 -0.3036  0.2252 -0.1800
  103POPC  H16R13751   0.784   0.731   3.884  0.5000  1.2887  1.9643
  103POPC  H16S13752   0.947   0.762   3.831  0.8318  0.0132  1.2150
  103POPC  C21713753   0.933   0.629   4.007 -0.4011  0.0362  0.2335
  103POPC  H17R13754   1.009   0.550   3.986 -0.8340 -0.8475  1.8262
  103POPC  H17S13755   0.850   0.578   4.061 -0.7773  0.1208 -0.2544
  103POPC  C21813756   0.982   0.742   4.102 -0.4252 -0.0084 -0.1032
  103POPC  H18R13757   1.093   0.746   4.107 -0.2957 -0.4560 -1.8943
  103POPC  H18S13758   0.954   0.714   4.206  1.0826 -2.2311 -0.2088
  103POPC  H18T13759   0.957   0.848   4.081  0.3846  0.3488  0.6410
  103POPC   C3313760   1.823   0.004   3.369 -0.4782 -0.6084  1.0053
  103POPC   H3X13761   1.726   0.057   3.380 -0.0460  0.3371  0.3537
  103POPC   H3Y13762   1.901   0.082   3.383  0.4100 -1.3169  0.2071
  103POPC   C3413763   1.838  -0.072   3.501  0.0843  0.0906  0.3586
  103POPC   H4X13764   1.946  -0.098   3.510 -0.3248 -1.4057  1.3095
  103POPC   H4Y13765   1.770  -0.158   3.486  0.6191 -0.1942 -0.4837
  103POPC   C3513766   1.795   0.001   3.627  0.2236  0.2659 -0.3971
  103POPC   H5X13767   1.851  -0.053   3.706 -2.0671  0.5080  1.4944
  103POPC   H5Y13768   1.685  -0.008   3.636  0.2524  1.4373  1.5311
  103POPC   C3613769   1.838   0.148   3.627 -0.2712  0.2470  0.0287
  103POPC   H6X13770   1.774   0.190   3.546  0.2849  2.9014  0.8607
  103POPC   H6Y13771   1.943   0.169   3.598 -0.4824  0.3163 -0.7085
  103POPC   C3713772   1.786   0.215   3.754 -0.6115  0.3943  0.8821
  103POPC   H7X13773   1.839   0.164   3.838  0.6805 -2.0484 -1.2579
  103POPC   H7Y13774   1.680   0.188   3.774 -0.5399 -2.1673 -1.4770
  103POPC   C3813775   1.806   0.371   3.751  0.0774  0.4253 -0.1058
  103POPC   H8X13776   1.788   0.420   3.653 -2.2833  0.7438  0.4348
  103POPC   H8Y13777   1.917   0.368   3.761 -0.0425 -1.0634  1.1378
  103POPC   C3913778   1.748   0.448   3.869  0.3049  0.4604  0.2030
  103POPC   H9X13779   1.641   0.462   3.841  0.7576  0.1757 -1.8171
  103POPC   H9Y13780   1.786   0.552   3.875 -0.6382  0.8372 -0.1747
  103POPC  C31013781   1.734   0.380   4.010 -0.2633  0.2169  0.1538
  103POPC  H10X13782   1.705   0.275   3.988  1.9383 -0.0923 -1.6763
  103POPC  H10Y13783   1.662   0.427   4.081  0.6612 -0.9346  1.9400
  103POPC  C31113784   1.867   0.390   4.088 -0.0202  0.2114  0.5602
  103POPC  H11X13785   1.944   0.330   4.035 -1.8516 -0.6939 -1.1897
  103POPC  H11Y13786   1.862   0.345   4.189 -0.1990  0.8287  0.8278
  103POPC  C31213787   1.919   0.535   4.111  0.2833  0.4263 -0.4521
  103POPC  H12X13788   1.835   0.582   4.165 -1.2659 -1.4429 -1.1207
  103POPC  H12Y13789   1.927   0.583   4.011  1.3955 -0.4464 -0.7999
  103POPC  C31313790   2.043   0.539   4.194 -0.4889  0.2445 -0.2802
  103POPC  H13X13791   2.103   0.468   4.134 -1.4605 -0.5293 -0.3605
  103POPC  H13Y13792   2.023   0.488   4.291 -0.4143 -0.5660 -0.6828
  103POPC  C31413793   2.123   0.664   4.196  0.1621 -0.0494  0.3903
  103POPC  H14X13794   2.148   0.714   4.100 -6.0219  2.7766 -0.1876
  103POPC  H14Y13795   2.214   0.639   4.257  0.2105  0.6452  0.6070
  103POPC  C31513796   2.049   0.778   4.270  0.2759 -0.0177  0.7962
  103POPC  H15X13797   2.008   0.729   4.361 -0.9188 -0.7333 -0.0955
  103POPC  H15Y13798   1.954   0.801   4.217  0.9828 -1.6866 -1.3411
  103POPC  C31613799   2.131   0.906   4.291  0.3189  0.8843 -0.0453
  103POPC  H16X13800   2.218   0.870   4.350 -1.2030 -3.5717 -0.1300
  103POPC  H16Y13801   2.067   0.970   4.355 -1.2736 -0.4770 -0.2121
  103POPC  H16Z13802   2.160   0.958   4.197 -1.3091 -0.9995 -1.6898
  104POPC     N13803   4.948   5.530   1.825  0.7840 -0.2777  0.4232
  104POPC   C1213804   5.037   5.622   1.893  0.6902 -0.9235 -0.7996
  104POPC  H12A13805   4.987   5.717   1.902 -0.8182 -1.6720 -1.0334
  104POPC  H12B13806   5.126   5.649   1.837  0.2353 -0.7622 -1.4588
  104POPC   C1313807   5.011   5.401   1.806  0.7528 -0.6783  0.2504
  104POPC  H13A13808   5.061   5.363   1.893 -0.2361 -0.3189  0.9869
  104POPC  H13B13809   4.928   5.334   1.789 -0.5488  0.5926  1.3824
  104POPC  H13C13810   5.088   5.413   1.731  1.1766  1.4977  0.9610
  104POPC   C1413811   4.820   5.512   1.907 -0.4228  0.9480 -0.5229
  104POPC  H14A13812   4.843   5.455   1.995 -1.6711 -2.1069 -2.0467
  104POPC  H14B13813   4.778   5.607   1.939 -0.0599  1.0041 -0.2101
  104POPC  H14C13814   4.749   5.448   1.857 -0.3228  0.5935 -0.2131
  104POPC   C1513815   4.904   5.588   1.690 -0.1062  0.3202 -0.1368
  104POPC  H15A13816   4.849   5.680   1.699  0.2643  0.5892 -0.5902
  104POPC  H15B13817   4.834   5.519   1.647 -0.3582 -0.8750  2.0146
  104POPC  H15C13818   4.995   5.606   1.634  1.0248 -1.1398  1.1494
  104POPC   C1113819   5.073   5.590   2.042 -0.0459  0.5586 -0.1313
  104POPC  H11A13820   4.977   5.594   2.098  0.3385  1.0396  0.5089
  104POPC  H11B13821   5.133   5.674   2.083 -0.4977  0.5506  0.5547
  104POPC     P13822   5.288   5.441   2.057 -0.4445 -0.0802 -0.0583
  104POPC   O1313823   5.344   5.555   1.980  0.3007 -0.7223 -0.0459
  104POPC   O1413824   5.318   5.303   2.003  0.3775 -0.4848  0.1421
  104POPC   O1213825   5.126   5.456   2.059 -0.6673  0.3557  0.3450
  104POPC   O1113826   5.333   5.442   2.207  0.6181 -0.3748 -0.2916
  104POPC    C113827   5.401   5.551   2.266  0.1938 -0.1757 -0.4698
  104POPC    HA13828   5.419   5.636   2.196  0.6089 -0.0290 -0.1884
  104POPC    HB13829   5.498   5.509   2.300 -0.3746 -1.3502 -0.2357
  104POPC    C213830   5.312   5.606   2.388  0.1431  0.2199 -0.0882
  104POPC    HS13831   5.222   5.657   2.346 -1.2599 -2.6458 -0.8237
  104POPC   O2113832   5.393   5.679   2.482  0.4032  0.1856 -0.0556
  104POPC   C2113833   5.374   5.804   2.470  0.3536  0.2810  0.6123
  104POPC   O2213834   5.298   5.868   2.396  0.0288  0.0176 -1.0217
  104POPC   C2213835   5.473   5.877   2.554  0.2637 -0.0933 -0.3595
  104POPC   H2R13836   5.484   5.976   2.503 -2.3104 -0.9700 -2.8632
  104POPC   H2S13837   5.571   5.824   2.556  0.3004 -0.0145  1.5367
  104POPC    C313838   5.239   5.491   2.461  0.2148 -0.0269 -0.5389
  104POPC    HX13839   5.314   5.420   2.500  0.9850  1.0351 -0.0530
  104POPC    HY13840   5.176   5.431   2.392 -0.4516  0.4818 -0.3873
  104POPC   O3113841   5.158   5.547   2.565  0.1045  0.4612 -0.7442
  104POPC   C3113842   5.024   5.565   2.535  0.0861 -0.6825 -0.4269
  104POPC   O3213843   4.976   5.534   2.429 -0.3529  0.2510  0.0641
  104POPC   C3213844   4.954   5.643   2.652 -0.5441  0.0747  0.2878
  104POPC   H2X13845   4.899   5.572   2.717 -1.4052  0.7391  0.3011
  104POPC   H2Y13846   4.880   5.715   2.610  0.2917  0.4378 -0.5987
  104POPC   C2313847   5.408   5.903   2.690 -0.2860  0.4032 -0.1258
  104POPC   H3R13848   5.313   5.956   2.667  1.3471  3.4262 -0.4548
  104POPC   H3S13849   5.478   5.968   2.747 -1.4389 -0.4107  2.3750
  104POPC   C2413850   5.396   5.790   2.790  0.4501 -0.7002 -0.3415
  104POPC   H4R13851   5.490   5.736   2.812 -0.0032 -0.8281  1.4348
  104POPC   H4S13852   5.317   5.721   2.754 -0.8832  0.9992 -0.8622
  104POPC   C2513853   5.352   5.836   2.934 -0.1301 -0.4332  0.4765
  104POPC   H5R13854   5.254   5.889   2.937 -0.5206 -1.0408 -0.7866
  104POPC   H5S13855   5.427   5.910   2.971 -0.1973 -0.4711  0.6923
  104POPC   C2613856   5.358   5.726   3.044  0.3984 -0.1633 -0.5876
  104POPC   H6R13857   5.452   5.667   3.032  0.4246  0.2156 -2.6006
  104POPC   H6S13858   5.274   5.653   3.040  0.3371 -0.2740  1.5855
  104POPC   C2713859   5.371   5.783   3.185 -0.2850  0.8972 -0.1152
  104POPC   H7R13860   5.297   5.860   3.215 -3.0443 -1.5187 -0.2297
  104POPC   H7S13861   5.467   5.838   3.191  0.2557 -0.1286  1.3279
  104POPC   C2813862   5.390   5.662   3.282  0.4197 -0.4736  0.2995
  104POPC   H8R13863   5.433   5.702   3.376 -0.1697  5.3105 -1.4689
  104POPC   H8S13864   5.468   5.594   3.243  2.1206  1.8503 -0.6019
  104POPC   C2913865   5.266   5.594   3.310  0.5149  0.6359 -0.1373
  104POPC   H9113866   5.211   5.555   3.223  0.2462 -2.3984  1.2400
  104POPC  C21013867   5.221   5.558   3.430 -0.3407 -0.2034  0.1891
  104POPC  H10113868   5.128   5.499   3.435  0.7183 -1.8880  0.5515
  104POPC  C21113869   5.289   5.593   3.559  0.5509 -0.6295 -0.0384
  104POPC  H11R13870   5.212   5.662   3.601  0.6993  0.5692 -1.6621
  104POPC  H11S13871   5.383   5.651   3.549  0.4963 -0.2018  1.6264
  104POPC  C21213872   5.314   5.478   3.646  0.0589  0.1740  0.0044
  104POPC  H12R13873   5.415   5.435   3.624 -0.1044 -0.0302 -0.3646
  104POPC  H12S13874   5.252   5.387   3.630 -0.3207  0.4119  0.1420
  104POPC  C21313875   5.302   5.514   3.796 -0.3452  0.0808  0.1555
  104POPC  H13R13876   5.307   5.416   3.847 -0.8601 -0.2873 -0.4861
  104POPC  H13S13877   5.198   5.554   3.799  0.5015  2.3460  1.6917
  104POPC  C21413878   5.395   5.615   3.842  0.0568 -0.1146  0.0227
  104POPC  H14R13879   5.397   5.700   3.771 -0.4275  0.3065  0.5053
  104POPC  H14S13880   5.498   5.573   3.833  0.4392  1.2232 -3.6823
  104POPC  C21513881   5.364   5.670   3.976 -0.3137 -0.2121  0.4947
  104POPC  H15R13882   5.450   5.732   4.008 -0.0086 -0.4955  0.2372
  104POPC  H15S13883   5.363   5.586   4.049  1.2769 -1.8199 -1.2181
  104POPC  C21613884   5.233   5.758   3.982 -0.1375  0.0650  0.2386
  104POPC  H16R13885   5.151   5.692   3.945  0.6051 -0.0829 -1.2239
  104POPC  H16S13886   5.241   5.846   3.914  0.2654 -1.0680 -1.2290
  104POPC  C21713887   5.205   5.812   4.122  0.1800  0.0888  1.1035
  104POPC  H17R13888   5.287   5.882   4.148 -1.4135  1.2423  3.3872
  104POPC  H17S13889   5.208   5.726   4.193 -0.8430 -0.3278  0.6585
  104POPC  C21813890   5.070   5.876   4.118 -0.3128  0.3085 -0.8749
  104POPC  H18R13891   4.993   5.806   4.079  1.7225 -2.3411 -0.4296
  104POPC  H18S13892   5.062   5.965   4.053  0.0829  1.7285  0.9238
  104POPC  H18T13893   5.030   5.904   4.218 -2.5518  1.4584 -2.0074
  104POPC   C3313894   5.057   5.723   2.739  1.2988  0.0028 -0.3843
  104POPC   H3X13895   5.121   5.776   2.665  0.4942 -2.5103 -3.0506
  104POPC   H3Y13896   5.118   5.649   2.795  2.1433  0.5531 -0.5577
  104POPC   C3413897   4.980   5.805   2.848 -0.4544 -0.6927 -0.1386
  104POPC   H4X13898   4.880   5.832   2.809 -0.5290  0.5606  0.8593
  104POPC   H4Y13899   5.026   5.905   2.862 -1.4227 -0.1733 -0.5895
  104POPC   C3513900   4.970   5.741   2.986  0.1023  0.2423 -0.2535
  104POPC   H5X13901   5.074   5.731   3.023  0.1161  1.2830  0.0173
  104POPC   H5Y13902   4.926   5.639   2.979 -0.3281  0.3438  0.7851
  104POPC   C3613903   4.881   5.816   3.085  0.1144 -0.7541 -0.4447
  104POPC   H6X13904   4.776   5.812   3.048 -1.1142 -1.4961  2.7619
  104POPC   H6Y13905   4.924   5.918   3.089 -1.9745  0.2295 -1.6074
  104POPC   C3713906   4.892   5.770   3.234  0.3059  0.4935 -0.0849
  104POPC   H7X13907   4.826   5.826   3.304  0.5377  0.0411  0.5078
  104POPC   H7Y13908   4.998   5.783   3.263  0.7036 -1.7289 -0.4227
  104POPC   C3813909   4.860   5.614   3.247 -0.9276 -0.2840 -0.0061
  104POPC   H8X13910   4.952   5.566   3.209 -0.5567  2.0827 -2.4456
  104POPC   H8Y13911   4.781   5.586   3.173 -1.9963  1.1833  0.5204
  104POPC   C3913912   4.819   5.590   3.390 -0.0369  0.3639  0.5079
  104POPC   H9X13913   4.877   5.661   3.452  1.1065 -0.2239  0.1268
  104POPC   H9Y13914   4.852   5.487   3.416 -0.1959  0.1931  0.0312
  104POPC  C31013915   4.666   5.590   3.414 -0.5651 -0.1965  0.4993
  104POPC  H10X13916   4.622   5.531   3.331  0.6346  0.6091 -0.7565
  104POPC  H10Y13917   4.641   5.698   3.401  0.1717 -0.0553  0.2215
  104POPC  C31113918   4.619   5.538   3.547  0.2045 -0.5209  0.3660
  104POPC  H11X13919   4.663   5.440   3.577  2.9911  0.4055 -0.4328
  104POPC  H11Y13920   4.508   5.545   3.545  0.1832 -0.9541 -0.4862
  104POPC  C31213921   4.633   5.642   3.663  0.4401  0.2078 -0.7322
  104POPC  H12X13922   4.578   5.736   3.642  0.2247 -0.0349 -1.2870
  104POPC  H12Y13923   4.743   5.654   3.665  0.3445  1.5199 -1.7545
  104POPC  C31313924   4.563   5.598   3.796 -0.4944 -0.4493 -0.1377
  104POPC  H13X13925   4.459   5.570   3.769 -0.2357 -0.4071 -1.2374
  104POPC  H13Y13926   4.561   5.678   3.873 -1.8332 -1.2855  0.7386
  104POPC  C31413927   4.639   5.488   3.865 -0.1018  0.4493 -1.0096
  104POPC  H14X13928   4.745   5.519   3.881 -0.0216 -0.8328  1.5656
  104POPC  H14Y13929   4.626   5.399   3.799  0.6861 -0.8202  0.4692
  104POPC  C31513930   4.578   5.455   3.999 -0.9961  0.4029  0.3797
  104POPC  H15X13931   4.602   5.348   4.019 -1.1322  0.3069  0.0432
  104POPC  H15Y13932   4.468   5.452   3.983 -0.6715  0.2408 -2.1685
  104POPC  C31613933   4.623   5.540   4.123  1.0105 -0.9286 -0.5571
  104POPC  H16X13934   4.733   5.543   4.132  0.9526  2.7791  0.3856
  104POPC  H16Y13935   4.575   5.512   4.219  1.1954  1.5213  0.2970
  104POPC  H16Z13936   4.594   5.646   4.111 -0.8959 -1.2853  0.4983
  105POPC     N13937   3.228   5.832   2.324  0.3326  0.1428  0.4150
  105POPC   C1213938   3.285   5.955   2.387 -0.5113  0.3245 -1.4496
  105POPC  H12A13939   3.273   6.047   2.331  1.6218  0.4302 -1.7882
  105POPC  H12B13940   3.392   5.952   2.378 -0.5965 -0.2481 -2.3703
  105POPC   C1313941   3.081   5.836   2.323 -0.2095 -0.0078 -0.0866
  105POPC  H13A13942   3.048   5.928   2.278  3.2758  0.8462 -1.2343
  105POPC  H13B13943   3.040   5.742   2.289  0.7677  0.2262 -2.0205
  105POPC  H13C13944   3.040   5.843   2.423 -0.7048 -0.7572 -0.2266
  105POPC   C1413945   3.267   5.825   2.177 -0.6457  0.6719  0.5383
  105POPC  H14A13946   3.211   5.749   2.125 -0.4047  1.3744 -0.8105
  105POPC  H14B13947   3.233   5.920   2.138  1.2587  1.4764  0.7162
  105POPC  H14C13948   3.374   5.812   2.170 -0.4589  2.2266 -0.0891
  105POPC   C1513949   3.284   5.707   2.387  0.1817 -0.6982 -0.4395
  105POPC  H15A13950   3.235   5.620   2.346  2.2447 -1.3962 -1.6029
  105POPC  H15B13951   3.270   5.719   2.493  0.3242 -0.1155 -0.4840
  105POPC  H15C13952   3.391   5.703   2.369  0.6711  3.3022  0.7942
  105POPC   C1113953   3.240   5.991   2.534  0.5455 -0.6978 -0.0149
  105POPC  H11A13954   3.317   6.058   2.578  0.1590  1.6392 -2.6260
  105POPC  H11B13955   3.239   5.900   2.597 -0.4277 -2.3173 -2.2593
  105POPC     P13956   3.080   6.180   2.470 -0.0714 -0.0585  0.4608
  105POPC   O1313957   2.953   6.237   2.523  0.2257 -0.1404  0.0296
  105POPC   O1413958   3.096   6.169   2.326 -0.2290  0.0249 -0.7406
  105POPC   O1213959   3.105   6.044   2.541  0.4758  0.3017  0.2744
  105POPC   O1113960   3.199   6.286   2.517  0.2025 -0.5302 -0.2984
  105POPC    C113961   3.220   6.306   2.660  0.9404 -1.3761 -0.6471
  105POPC    HA13962   3.283   6.226   2.704  2.4207  0.8606  1.5009
  105POPC    HB13963   3.130   6.297   2.724  1.2255  0.0166 -0.0119
  105POPC    C213964   3.286   6.450   2.688 -0.1281  0.0419  0.2649
  105POPC    HS13965   3.214   6.523   2.646  0.7240 -0.5356 -2.4253
  105POPC   O2113966   3.408   6.470   2.620 -0.4087 -0.0040 -0.8181
  105POPC   C2113967   3.448   6.588   2.592  0.7989 -0.0443 -0.8824
  105POPC   O2213968   3.379   6.688   2.603  0.3692  0.3272  0.0928
  105POPC   C2213969   3.596   6.589   2.545  0.2309 -0.2164  0.2768
  105POPC   H2R13970   3.594   6.638   2.446  0.9754 -1.0358 -0.1595
  105POPC   H2S13971   3.621   6.482   2.531 -1.0611 -0.4792 -0.1210
  105POPC    C313972   3.303   6.475   2.847 -0.1579 -0.0329 -0.6538
  105POPC    HX13973   3.198   6.463   2.882 -0.5100 -0.6673 -1.8729
  105POPC    HY13974   3.348   6.576   2.845 -0.2285 -0.0090 -1.2764
  105POPC   O3113975   3.396   6.378   2.897  0.5185 -0.0001  0.2583
  105POPC   C3113976   3.354   6.295   2.993 -0.2418  0.4148 -0.3259
  105POPC   O3213977   3.251   6.313   3.055 -0.2377  0.0116  0.2767
  105POPC   C3213978   3.435   6.169   3.000  0.1236  0.0213 -0.2616
  105POPC   H2X13979   3.525   6.184   3.063  0.5900  2.9253 -1.4987
  105POPC   H2Y13980   3.470   6.141   2.899  1.7396  0.6094  0.1004
  105POPC   C2313981   3.694   6.672   2.637  0.4542  0.3807  0.8197
  105POPC   H3R13982   3.662   6.775   2.664  0.7321  0.8370 -0.4850
  105POPC   H3S13983   3.783   6.697   2.575  0.7766 -1.2314  0.5948
  105POPC   C2413984   3.765   6.604   2.755  0.3081 -0.4011  0.0988
  105POPC   H4R13985   3.832   6.680   2.799  1.9741 -1.7560  0.0170
  105POPC   H4S13986   3.829   6.523   2.714  1.4055  1.1482 -1.3754
  105POPC   C2513987   3.656   6.562   2.859  0.4911 -0.0991 -0.2034
  105POPC   H5R13988   3.607   6.472   2.815 -0.9372  1.6407 -2.3526
  105POPC   H5S13989   3.584   6.644   2.877  0.0204 -0.5420 -0.0421
  105POPC   C2613990   3.717   6.517   2.996  0.5263 -0.1271  0.7202
  105POPC   H6R13991   3.799   6.587   3.023  0.6726  1.0570 -2.3663
  105POPC   H6S13992   3.764   6.418   2.983  1.8349  0.5695 -0.1567
  105POPC   C2713993   3.619   6.519   3.116  0.4232 -0.4912 -0.0018
  105POPC   H7R13994   3.556   6.427   3.112 -1.0562  0.5366 -1.6905
  105POPC   H7S13995   3.553   6.608   3.112 -1.6208 -1.7610  2.2557
  105POPC   C2813996   3.693   6.518   3.251 -0.4210  0.2815 -0.5259
  105POPC   H8R13997   3.735   6.620   3.262 -1.1837  0.5001  0.5756
  105POPC   H8S13998   3.774   6.442   3.248  0.4494  1.0407  1.5982
  105POPC   C2913999   3.605   6.488   3.372  0.0094 -0.2948  0.4351
  105POPC   H9114000   3.523   6.418   3.354 -0.9228  1.2513 -1.7692
  105POPC  C21014001   3.603   6.558   3.491  0.7863  0.6134 -0.2094
  105POPC  H10114002   3.530   6.532   3.569  2.6807  0.8289  1.7486
  105POPC  C21114003   3.709   6.659   3.527  0.3742 -0.2634 -0.0021
  105POPC  H11R14004   3.676   6.758   3.488 -2.4548 -1.5788 -1.1955
  105POPC  H11S14005   3.801   6.632   3.471  0.9220  2.4827 -0.5642
  105POPC  C21214006   3.736   6.662   3.676 -0.5124  0.1163 -0.0459
  105POPC  H12R14007   3.844   6.686   3.683 -0.6415  1.0745 -0.9645
  105POPC  H12S14008   3.721   6.565   3.727 -1.4335  0.3083  0.0761
  105POPC  C21314009   3.659   6.774   3.753 -0.2539 -0.2161 -0.1770
  105POPC  H13R14010   3.550   6.768   3.734 -0.1626  1.1777 -1.3077
  105POPC  H13S14011   3.680   6.865   3.693 -3.2570 -1.3483 -3.2960
  105POPC  C21414012   3.715   6.776   3.895  0.4027  0.3735 -0.5754
  105POPC  H14R14013   3.821   6.802   3.874  0.4301  0.5459 -0.2342
  105POPC  H14S14014   3.713   6.672   3.933  2.1160 -0.1958 -1.8773
  105POPC  C21514015   3.642   6.859   3.995  0.5916 -0.4045  0.2634
  105POPC  H15R14016   3.533   6.837   3.987  0.2387  0.7999  1.2886
  105POPC  H15S14017   3.653   6.965   3.963  0.6228 -0.4512  0.1218
  105POPC  C21614018   3.687   6.835   4.136  0.5109 -0.1443 -0.3177
  105POPC  H16R14019   3.794   6.862   4.134  0.3555  0.6753  1.0512
  105POPC  H16S14020   3.659   6.732   4.168  1.0845 -0.0444  0.5304
  105POPC  C21714021   3.635   6.940   4.235  0.6593 -0.5164  0.4616
  105POPC  H17R14022   3.525   6.925   4.239  0.7767 -1.1955  1.8821
  105POPC  H17S14023   3.658   7.042   4.199  0.6772 -1.1838 -1.5298
  105POPC  C21814024   3.698   6.911   4.370  0.7485 -0.2018 -0.9339
  105POPC  H18R14025   3.808   6.900   4.371  0.7490 -0.3180 -1.6731
  105POPC  H18S14026   3.650   6.816   4.402 -0.6486  0.0330 -2.2469
  105POPC  H18T14027   3.676   6.986   4.449  0.3064 -1.6658  0.3951
  105POPC   C3314028   3.347   6.052   3.055 -0.2867 -0.6312  0.1315
  105POPC   H3X14029   3.244   6.050   3.013  0.0844  0.4854 -0.8973
  105POPC   H3Y14030   3.328   6.072   3.162  1.7754  0.5224  0.3312
  105POPC   C3414031   3.406   5.914   3.029 -0.1779  0.3928  0.3459
  105POPC   H4X14032   3.499   5.906   3.089 -0.7879 -0.6440  1.2052
  105POPC   H4Y14033   3.435   5.920   2.922 -2.0930  1.5745 -0.1543
  105POPC   C3514034   3.309   5.797   3.045  0.1987  0.0238  0.5255
  105POPC   H5X14035   3.355   5.698   3.024 -3.7678 -1.9609  0.2876
  105POPC   H5Y14036   3.223   5.797   2.975  0.9531  0.8405 -0.4265
  105POPC   C3614037   3.258   5.787   3.191 -0.0813 -0.0443  0.1686
  105POPC   H6X14038   3.186   5.703   3.200  0.2804 -0.3585  0.1465
  105POPC   H6Y14039   3.186   5.869   3.210  0.6944  0.4049  1.2858
  105POPC   C3714040   3.362   5.798   3.302  0.2412  0.3678  0.1192
  105POPC   H7X14041   3.419   5.893   3.303 -0.5643  0.8722  1.2957
  105POPC   H7Y14042   3.436   5.715   3.295 -0.4444 -0.7041  3.4584
  105POPC   C3814043   3.296   5.792   3.441  0.2790 -0.2657  0.5890
  105POPC   H8X14044   3.263   5.686   3.442  1.6239 -0.7965 -2.0001
  105POPC   H8Y14045   3.214   5.864   3.461  0.6559  0.4034 -0.2095
  105POPC   C3914046   3.402   5.814   3.552 -0.0099  0.1896 -0.3119
  105POPC   H9X14047   3.481   5.736   3.539 -1.4047 -1.1474 -1.0789
  105POPC   H9Y14048   3.354   5.802   3.651  3.7310  1.4418  1.8793
  105POPC  C31014049   3.463   5.945   3.548 -0.0204 -0.7177 -0.5840
  105POPC  H10X14050   3.531   5.964   3.461  2.2633 -0.2149  1.2043
  105POPC  H10Y14051   3.543   5.927   3.623 -2.2824 -0.5232  2.0351
  105POPC  C31114052   3.375   6.071   3.590 -0.3030 -0.0962 -0.4215
  105POPC  H11X14053   3.333   6.046   3.690 -2.2970 -1.3740 -1.5037
  105POPC  H11Y14054   3.290   6.069   3.518 -1.3895 -1.0814  0.8344
  105POPC  C31214055   3.454   6.196   3.586 -0.2727  0.0311  0.2111
  105POPC  H12X14056   3.376   6.274   3.599 -0.3194 -0.2201  1.5213
  105POPC  H12Y14057   3.504   6.225   3.491  0.2653  0.2438  0.5580
  105POPC  C31314058   3.569   6.195   3.693  0.6428  0.0361  0.1567
  105POPC  H13X14059   3.670   6.214   3.650  0.1743  1.2490 -0.4838
  105POPC  H13Y14060   3.563   6.096   3.743 -0.1531  0.6468  1.3164
  105POPC  C31414061   3.543   6.301   3.801 -0.7995  0.6728 -0.1630
  105POPC  H14X14062   3.435   6.319   3.821 -0.6220  0.3084  1.2754
  105POPC  H14Y14063   3.581   6.403   3.779  0.3331  0.6684  1.5407
  105POPC  C31514064   3.604   6.263   3.943 -0.0359  0.3720  0.0849
  105POPC  H15X14065   3.540   6.181   3.982 -0.8820  0.7799 -0.4071
  105POPC  H15Y14066   3.588   6.351   4.009  0.6906 -0.4024  1.3183
  105POPC  C31614067   3.749   6.229   3.947 -0.5717  0.3424  0.0934
  105POPC  H16X14068   3.804   6.322   3.922  0.8764  0.0181  1.9243
  105POPC  H16Y14069   3.764   6.140   3.883 -1.4996  0.3762 -0.2002
  105POPC  H16Z14070   3.780   6.200   4.049  0.4583  0.9015 -0.0479
  106POPC     N14071   2.455   0.054   2.387  0.1574  0.5561 -0.1773
  106POPC   C1214072   2.324   0.036   2.310 -0.6668  0.6589 -0.3365
  106POPC  H12A14073   2.329   0.108   2.230  1.2991  1.7659  0.7105
  106POPC  H12B14074   2.234   0.064   2.363 -0.5671  0.0020  0.1872
  106POPC   C1314075   2.569   0.023   2.299 -0.4007 -0.4518 -0.3823
  106POPC  H13A14076   2.568   0.084   2.209 -0.4526 -1.3208 -0.9871
  106POPC  H13B14077   2.667   0.025   2.345 -1.2183  0.3533  1.4163
  106POPC  H13C14078   2.558  -0.080   2.268 -1.1690 -1.2445  2.2955
  106POPC   C1414079   2.467   0.196   2.447 -0.8010  0.1804 -0.3459
  106POPC  H14A14080   2.372   0.224   2.491 -0.2249  0.9050  0.4622
  106POPC  H14B14081   2.542   0.197   2.524 -0.6250 -0.1729 -0.5126
  106POPC  H14C14082   2.497   0.275   2.380  0.1883  0.6058  0.5742
  106POPC   C1514083   2.448  -0.037   2.505  0.8407  0.4520  0.1800
  106POPC  H15A14084   2.541  -0.022   2.558  0.7092  3.0993 -0.1851
  106POPC  H15B14085   2.421  -0.137   2.476 -0.4948  0.9189 -0.2339
  106POPC  H15C14086   2.365  -0.005   2.565  0.0743 -0.5415 -0.3399
  106POPC   C1114087   2.296  -0.108   2.253  0.2812  0.4187  0.2710
  106POPC  H11A14088   2.394  -0.136   2.208  0.3365  2.0917 -0.7451
  106POPC  H11B14089   2.221  -0.105   2.172 -1.2162 -1.2127  1.5125
  106POPC     P14090   2.098  -0.200   2.391  0.1694 -0.1449  0.5642
  106POPC   O1314091   2.021  -0.236   2.273 -0.4268  0.1511 -0.3351
  106POPC   O1414092   2.058  -0.075   2.464 -0.4132 -0.1844 -0.7728
  106POPC   O1214093   2.253  -0.192   2.357 -0.5617  0.4809  0.1245
  106POPC   O1114094   2.095  -0.320   2.489 -0.7406 -0.3094  0.2334
  106POPC    C114095   2.174  -0.319   2.604 -0.8206 -0.0782  0.1316
  106POPC    HA14096   2.258  -0.245   2.599  0.2495 -1.1687  1.3684
  106POPC    HB14097   2.223  -0.418   2.617  0.2782  0.6929  2.5089
  106POPC    C214098   2.078  -0.286   2.728 -0.1276  0.2499  0.1694
  106POPC    HS14099   2.014  -0.199   2.702  1.2718  0.8501 -1.4845
  106POPC   O2114100   2.150  -0.256   2.842 -0.4830 -0.2811 -0.1527
  106POPC   C2114101   2.233  -0.155   2.845  0.5671  0.0148 -0.1818
  106POPC   O2214102   2.246  -0.072   2.756 -0.2715 -0.3419  0.2402
  106POPC   C2214103   2.308  -0.146   2.976 -0.0081 -0.5365  0.1026
  106POPC   H2R14104   2.407  -0.106   2.945 -0.3717  0.6132  0.3571
  106POPC   H2S14105   2.308  -0.242   3.033 -0.2263  0.1240  1.2604
  106POPC    C314106   1.987  -0.409   2.751 -0.0079 -0.2709 -0.1194
  106POPC    HX14107   2.051  -0.492   2.787 -0.8480  0.2044  2.7117
  106POPC    HY14108   1.930  -0.436   2.659 -0.5919  0.4215  0.0301
  106POPC   O3114109   1.894  -0.383   2.861 -0.0931 -0.1911 -0.2590
  106POPC   C3114110   1.785  -0.330   2.819 -0.1899 -0.3144  0.1197
  106POPC   O3214111   1.768  -0.282   2.708  0.0215 -0.5046 -0.0389
  106POPC   C3214112   1.676  -0.333   2.926  0.2546 -0.2648  0.0275
  106POPC   H2X14113   1.596  -0.395   2.882 -0.6315  0.1833  0.9661
  106POPC   H2Y14114   1.641  -0.227   2.925  1.7483  0.2663 -1.3509
  106POPC   C2314115   2.243  -0.039   3.063 -0.2292 -0.5077 -0.2941
  106POPC   H3R14116   2.137  -0.069   3.075 -0.3987  0.1781 -0.0869
  106POPC   H3S14117   2.251   0.069   3.039  0.0817 -0.4763 -0.0599
  106POPC   C2414118   2.297  -0.055   3.209  0.0493 -0.2206  0.1027
  106POPC   H4R14119   2.406  -0.034   3.203 -0.0406 -0.0255 -1.1740
  106POPC   H4S14120   2.292  -0.159   3.248 -0.3597 -0.5243 -0.7460
  106POPC   C2514121   2.234   0.040   3.315  0.1545 -0.3423  0.0656
  106POPC   H5R14122   2.132   0.020   3.353  0.3659  2.6666  2.7327
  106POPC   H5S14123   2.232   0.141   3.267  1.7849  0.1373  0.9144
  106POPC   C2614124   2.322   0.059   3.437 -0.0241  0.7729  0.3294
  106POPC   H6R14125   2.427   0.091   3.422  0.4637 -0.9062 -0.1324
  106POPC   H6S14126   2.327  -0.045   3.478  0.0565  0.3261 -0.7963
  106POPC   C2714127   2.250   0.140   3.551  0.1047  0.3798  0.9386
  106POPC   H7R14128   2.147   0.099   3.554 -0.3325  1.4794  1.3582
  106POPC   H7S14129   2.246   0.240   3.503 -2.9431 -0.5170 -1.0131
  106POPC   C2814130   2.324   0.133   3.683 -0.2211 -0.5764  0.3731
  106POPC   H8R14131   2.428   0.171   3.671 -0.5685  0.1466 -0.4094
  106POPC   H8S14132   2.334   0.026   3.712 -2.5219 -1.3707 -1.5051
  106POPC   C2914133   2.256   0.212   3.793  0.8975  0.4554 -0.1776
  106POPC   H9114134   2.239   0.318   3.772  1.1698  0.4556 -0.4036
  106POPC  C21014135   2.202   0.158   3.902  0.0879  0.4688  0.0959
  106POPC  H10114136   2.161   0.229   3.975 -0.3055 -1.6293  2.0335
  106POPC  C21114137   2.200   0.010   3.947  0.4115 -0.2715  0.3175
  106POPC  H11R14138   2.294  -0.022   3.997  1.3093  1.1898 -0.3646
  106POPC  H11S14139   2.193  -0.053   3.856  3.3465 -2.4487  1.4448
  106POPC  C21214140   2.084  -0.016   4.040 -0.6792 -0.6072  1.2221
  106POPC  H12R14141   1.991   0.024   3.994 -1.1616 -1.0849  1.7651
  106POPC  H12S14142   2.104   0.055   4.122 -0.7516  0.7538  0.0961
  106POPC  C21314143   2.070  -0.160   4.083  0.4626  0.3876  0.2152
  106POPC  H13R14144   2.166  -0.188   4.131 -0.2041 -0.9676  0.8264
  106POPC  H13S14145   2.054  -0.232   4.000 -0.9175 -0.4006  1.1174
  106POPC  C21414146   1.956  -0.176   4.185 -0.0942  0.0622  0.3668
  106POPC  H14R14147   1.988  -0.132   4.282 -1.4659  2.5649 -0.2341
  106POPC  H14S14148   1.947  -0.286   4.193  1.1305 -0.2890 -2.2002
  106POPC  C21514149   1.817  -0.126   4.145  0.4252 -0.0118 -0.0911
  106POPC  H15R14150   1.820  -0.015   4.133  3.0637  0.0442  0.5390
  106POPC  H15S14151   1.740  -0.139   4.225 -0.2541  0.1019 -0.7090
  106POPC  C21614152   1.762  -0.181   4.016 -0.1513  0.6223 -0.6017
  106POPC  H16R14153   1.785  -0.289   4.013  0.8351  0.8390 -2.5135
  106POPC  H16S14154   1.820  -0.138   3.932 -0.6163  2.8705  0.1548
  106POPC  C21714155   1.608  -0.178   3.985 -0.7543 -0.7157  0.7007
  106POPC  H17R14156   1.559  -0.232   4.070  1.1896  0.4025  2.6406
  106POPC  H17S14157   1.596  -0.237   3.892 -2.8932  0.9576 -0.1610
  106POPC  C21814158   1.541  -0.043   3.959 -0.3731 -0.1806 -0.4421
  106POPC  H18R14159   1.602   0.039   3.916  0.4466 -1.2160 -1.3134
  106POPC  H18S14160   1.501   0.005   4.051 -1.2803  1.3103 -1.5805
  106POPC  H18T14161   1.455  -0.048   3.889 -0.3229  2.1886 -0.7468
  106POPC   C3314162   1.716  -0.365   3.071 -0.3419  0.4336  0.0572
  106POPC   H3X14163   1.800  -0.293   3.087  0.2773 -0.1846 -0.3755
  106POPC   H3Y14164   1.758  -0.468   3.076 -0.5505  0.3562  0.2673
  106POPC   C3414165   1.596  -0.344   3.162  1.0378  0.0728  0.1390
  106POPC   H4X14166   1.510  -0.386   3.107  0.2769 -0.8188  1.9138
  106POPC   H4Y14167   1.566  -0.239   3.182  0.5848 -0.0890  0.3221
  106POPC   C3514168   1.595  -0.424   3.281 -1.3667  0.3572 -0.4034
  106POPC   H5X14169   1.679  -0.404   3.350 -1.7649  0.9827 -0.0938
  106POPC   H5Y14170   1.608  -0.531   3.254 -0.8468  0.1260  0.7290
  106POPC   C3614171   1.474  -0.403   3.373 -0.6306 -0.0744  0.5859
  106POPC   H6X14172   1.464  -0.496   3.433 -2.2707  0.2422  0.8538
  106POPC   H6Y14173   1.379  -0.394   3.315 -0.5579  0.3326  0.5221
  106POPC   C3714174   1.480  -0.285   3.465 -0.5000 -0.4464  0.1565
  106POPC   H7X14175   1.497  -0.188   3.416 -1.2561 -0.9586 -1.1664
  106POPC   H7Y14176   1.565  -0.304   3.533  0.0055 -0.9546 -0.6030
  106POPC   C3814177   1.364  -0.272   3.560 -0.4094  0.1769  0.1179
  106POPC   H8X14178   1.266  -0.250   3.513  0.0303 -2.9334 -2.6008
  106POPC   H8Y14179   1.387  -0.181   3.620  0.9637 -0.3868  0.5068
  106POPC   C3914180   1.343  -0.393   3.661 -0.2733 -0.1091  0.5599
  106POPC   H9X14181   1.444  -0.422   3.696  1.1387  0.5340 -2.5862
  106POPC   H9Y14182   1.307  -0.480   3.603 -3.5792  0.6911  1.1923
  106POPC  C31014183   1.233  -0.365   3.770  0.1760 -0.1876  0.1714
  106POPC  H10X14184   1.148  -0.311   3.724 -0.2893  0.4420  1.7066
  106POPC  H10Y14185   1.284  -0.296   3.840  1.6031 -1.6752  0.6834
  106POPC  C31114186   1.184  -0.483   3.852  0.0098  0.1250 -0.1358
  106POPC  H11X14187   1.110  -0.540   3.792 -0.0842 -1.4261  1.3521
  106POPC  H11Y14188   1.135  -0.427   3.935 -0.5284  2.7805 -2.1254
  106POPC  C31214189   1.291  -0.579   3.902  0.2250 -0.4349  0.0084
  106POPC  H12X14190   1.375  -0.519   3.944  0.3830 -0.1264 -0.7279
  106POPC  H12Y14191   1.335  -0.636   3.817  1.1731  2.9962 -2.0167
  106POPC  C31314192   1.236  -0.669   4.013  0.3445 -0.7458  0.1041
  106POPC  H13X14193   1.202  -0.600   4.093 -0.0428 -0.0713 -0.6271
  106POPC  H13Y14194   1.311  -0.744   4.045 -0.5354 -1.4687  0.5132
  106POPC  C31414195   1.113  -0.763   3.983  0.0586  0.0753 -0.9669
  106POPC  H14X14196   1.147  -0.835   3.905 -0.1655 -0.6785 -0.3824
  106POPC  H14Y14197   1.036  -0.700   3.933 -1.5104 -0.3292  0.8415
  106POPC  C31514198   1.076  -0.835   4.114  0.7259  0.0575 -0.1719
  106POPC  H15X14199   1.075  -0.766   4.202  0.5494  0.3794 -0.4260
  106POPC  H15Y14200   1.157  -0.903   4.147  1.6491  2.1913  2.3883
  106POPC  C31614201   0.939  -0.908   4.130 -0.4909  0.4757  0.0509
  106POPC  H16X14202   0.938  -0.967   4.224  1.2607 -0.4104 -0.4461
  106POPC  H16Y14203   0.913  -0.965   4.038 -0.8763  2.0128 -0.8312
  106POPC  H16Z14204   0.873  -0.820   4.146  0.3025  0.8179  1.6274
  107POPC     N14205   6.103   1.454   2.082 -0.2375  0.0158  0.5100
  107POPC   C1214206   6.108   1.470   2.231 -1.0392 -0.5768  0.8012
  107POPC  H12A14207   6.127   1.574   2.252 -0.9633 -0.4671  0.2138
  107POPC  H12B14208   6.189   1.408   2.265 -0.3993 -0.3294 -0.2312
  107POPC   C1314209   5.986   1.542   2.034  0.8703  0.1491  0.1217
  107POPC  H13A14210   5.984   1.525   1.927  3.0780 -1.3208  0.2571
  107POPC  H13B14211   5.897   1.492   2.070  0.3662 -0.5914 -1.9681
  107POPC  H13C14212   6.011   1.645   2.055  0.8060  0.0697  0.5895
  107POPC   C1414213   6.229   1.510   2.017  0.0439 -0.1090  0.2780
  107POPC  H14A14214   6.319   1.464   2.055  0.5005  1.7546  1.6210
  107POPC  H14B14215   6.220   1.506   1.910  0.5007 -1.7774  0.2787
  107POPC  H14C14216   6.236   1.617   2.035  0.8075 -0.0657 -0.1999
  107POPC   C1514217   6.085   1.312   2.028  0.2764  0.6557 -0.0708
  107POPC  H15A14218   6.097   1.308   1.921 -0.9335  0.6224 -0.2228
  107POPC  H15B14219   5.991   1.270   2.061  1.0103 -0.2642  0.9361
  107POPC  H15C14220   6.170   1.256   2.063 -1.2157 -0.8317  1.3551
  107POPC   C1114221   5.990   1.427   2.311  0.7421 -0.3245  0.2133
  107POPC  H11A14222   6.011   1.410   2.419 -0.0642 -2.4349  0.0656
  107POPC  H11B14223   5.957   1.327   2.277 -1.3272  0.5867 -0.6713
  107POPC     P14224   5.738   1.489   2.371  0.3145 -0.1921  0.5396
  107POPC   O1314225   5.689   1.369   2.299 -0.4288 -0.3746 -0.4343
  107POPC   O1414226   5.658   1.610   2.359  0.0519  0.1839  0.1826
  107POPC   O1214227   5.886   1.517   2.311 -0.0100  0.0820  0.2472
  107POPC   O1114228   5.762   1.455   2.530 -0.2404  1.0238  0.0263
  107POPC    C114229   5.860   1.517   2.618 -0.2967  0.2793  0.3049
  107POPC    HA14230   5.903   1.603   2.562 -0.5937 -0.4267 -1.0406
  107POPC    HB14231   5.951   1.454   2.633  1.3589  1.7708 -2.6125
  107POPC    C214232   5.813   1.583   2.748 -0.5767  0.3761  0.0406
  107POPC    HS14233   5.902   1.608   2.810 -0.7552  0.9325  0.0778
  107POPC   O2114234   5.710   1.508   2.827  0.6423  0.3619 -0.5356
  107POPC   C2114235   5.774   1.418   2.904 -0.5565 -0.4240 -0.8949
  107POPC   O2214236   5.895   1.401   2.911 -0.0706 -0.6346  0.5918
  107POPC   C2214237   5.689   1.352   3.013 -0.3916 -0.8117 -0.5254
  107POPC   H2R14238   5.707   1.244   2.995  2.5975 -1.1470  3.2025
  107POPC   H2S14239   5.583   1.380   2.994 -0.2809 -0.8086 -1.1509
  107POPC    C314240   5.751   1.715   2.711  0.2764 -0.7503  0.4871
  107POPC    HX14241   5.652   1.712   2.662  0.8250  0.7952 -0.8415
  107POPC    HY14242   5.810   1.762   2.629 -0.3959 -0.9669 -0.1239
  107POPC   O3114243   5.762   1.806   2.825  0.4612  0.5861  0.3219
  107POPC   C3114244   5.688   1.917   2.830 -0.2855 -0.4091  0.0279
  107POPC   O3214245   5.615   1.956   2.740  0.5056  0.0378  0.6357
  107POPC   C3214246   5.701   1.992   2.961 -0.7930 -0.1705  0.5124
  107POPC   H2X14247   5.785   2.064   2.958  1.0224 -2.1644  0.5422
  107POPC   H2Y14248   5.752   1.925   3.034 -2.3295 -0.3363  1.4931
  107POPC   C2314249   5.743   1.368   3.158 -0.2163 -0.1761 -0.8223
  107POPC   H3R14250   5.728   1.471   3.197 -1.3931 -1.0376  1.1813
  107POPC   H3S14251   5.854   1.358   3.165 -0.0271  2.1826  1.2392
  107POPC   C2414252   5.663   1.284   3.254  0.1361  0.3136 -0.6011
  107POPC   H4R14253   5.681   1.174   3.248  0.1709  0.3213 -0.6369
  107POPC   H4S14254   5.556   1.303   3.228  0.5658  2.2011 -1.1014
  107POPC   C2514255   5.688   1.325   3.400  0.0062 -0.3191  0.2744
  107POPC   H5R14256   5.625   1.260   3.463  0.9059  0.8177  2.4511
  107POPC   H5S14257   5.651   1.429   3.412 -1.0423 -0.4363 -1.6299
  107POPC   C2614258   5.829   1.305   3.444  0.3040  0.2236  0.2034
  107POPC   H6R14259   5.898   1.340   3.364 -1.9225 -0.7391 -2.2909
  107POPC   H6S14260   5.849   1.196   3.457 -2.5119 -0.1045  2.8615
  107POPC   C2714261   5.855   1.360   3.591 -0.4854  0.0137  0.4404
  107POPC   H7R14262   5.788   1.314   3.667  1.3038  0.4336  2.3410
  107POPC   H7S14263   5.840   1.470   3.595 -2.1893 -0.2156  1.7322
  107POPC   C2814264   5.999   1.318   3.637  0.0240 -0.7851 -0.4839
  107POPC   H8R14265   5.993   1.207   3.625 -0.9384 -0.5876 -2.1453
  107POPC   H8S14266   5.998   1.342   3.745  0.8188  3.1511 -1.2047
  107POPC   C2914267   6.122   1.373   3.568 -0.1194 -0.1319  1.1654
  107POPC   H9114268   6.100   1.422   3.472 -1.8231 -1.9493  0.5654
  107POPC  C21014269   6.249   1.357   3.611  0.1391 -1.0536 -0.5865
  107POPC  H10114270   6.327   1.405   3.550  0.3245 -0.8028 -0.1524
  107POPC  C21114271   6.290   1.297   3.743 -0.2017  0.4346 -0.1676
  107POPC  H11R14272   6.344   1.201   3.730  0.8720  0.6716  2.0589
  107POPC  H11S14273   6.207   1.279   3.815  2.4025  0.0858  2.9759
  107POPC  C21214274   6.405   1.369   3.814 -0.2659 -0.4608 -0.4536
  107POPC  H12R14275   6.368   1.473   3.824  0.1462 -0.4386  1.3089
  107POPC  H12S14276   6.491   1.381   3.745  0.9753  0.8406  1.2072
  107POPC  C21314277   6.452   1.312   3.953  0.3328  0.0452  0.4268
  107POPC  H13R14278   6.489   1.208   3.940 -0.0390  0.1635 -2.2159
  107POPC  H13S14279   6.355   1.320   4.008 -0.2081  0.6975 -0.5848
  107POPC  C21414280   6.562   1.396   4.019 -0.0245  0.4828 -0.2972
  107POPC  H14R14281   6.526   1.501   4.015 -2.1555 -0.2220 -1.1599
  107POPC  H14S14282   6.662   1.386   3.970  1.2894  0.1560  2.2743
  107POPC  C21514283   6.599   1.363   4.162 -0.5072  0.0081  0.0127
  107POPC  H15R14284   6.691   1.418   4.191 -1.2292  1.0072  0.4755
  107POPC  H15S14285   6.618   1.255   4.180  0.7167  0.2767  0.4212
  107POPC  C21614286   6.486   1.399   4.266  0.3285 -0.2518  0.2553
  107POPC  H16R14287   6.406   1.323   4.246 -0.5816  0.6599  0.3537
  107POPC  H16S14288   6.448   1.502   4.247 -0.7840  0.2748  4.3801
  107POPC  C21714289   6.550   1.392   4.403 -0.4368 -0.3260 -0.7584
  107POPC  H17R14290   6.645   1.450   4.401 -1.4458  1.4992  1.0424
  107POPC  H17S14291   6.555   1.282   4.420 -1.2998 -0.2914 -0.2376
  107POPC  C21814292   6.476   1.456   4.516 -0.2789 -1.0455 -0.2064
  107POPC  H18R14293   6.540   1.465   4.606  0.4163 -2.1807 -0.5720
  107POPC  H18S14294   6.388   1.393   4.543  0.2621 -1.3105  0.9870
  107POPC  H18T14295   6.439   1.559   4.495 -2.0765 -1.0503  2.4178
  107POPC   C3314296   5.580   2.070   3.004 -0.2425 -0.2670  0.4333
  107POPC   H3X14297   5.491   2.005   3.014 -1.0681  0.7688  0.0368
  107POPC   H3Y14298   5.555   2.151   2.932 -0.9687 -0.9662 -0.1111
  107POPC   C3414299   5.607   2.142   3.139 -0.6812  0.1009  0.0065
  107POPC   H4X14300   5.520   2.208   3.160 -0.1386  1.1978 -1.0083
  107POPC   H4Y14301   5.699   2.206   3.137  1.0802 -2.3082 -0.3888
  107POPC   C3514302   5.625   2.053   3.258  0.0294  0.2989  0.3100
  107POPC   H5X14303   5.727   2.009   3.251  0.6770  1.8494 -0.6211
  107POPC   H5Y14304   5.557   1.965   3.255 -0.7584  0.8439  1.4418
  107POPC   C3614305   5.598   2.124   3.389 -0.3460  0.4255  0.3672
  107POPC   H6X14306   5.507   2.188   3.388  0.4504  1.6206  1.2458
  107POPC   H6Y14307   5.687   2.189   3.397 -0.8262  1.0256  0.9256
  107POPC   C3714308   5.587   2.029   3.510  1.0112 -0.0016  0.5036
  107POPC   H7X14309   5.636   1.935   3.477 -2.4135 -1.8064  0.2282
  107POPC   H7Y14310   5.479   2.008   3.520  0.3318  2.1727 -1.4540
  107POPC   C3814311   5.648   2.082   3.638 -0.1506 -0.2637  0.2611
  107POPC   H8X14312   5.602   2.178   3.671  1.7947  1.0236 -0.6137
  107POPC   H8Y14313   5.757   2.102   3.629 -0.5401  1.2768 -1.5476
  107POPC   C3914314   5.629   1.975   3.746 -0.6204  0.2738 -0.2189
  107POPC   H9X14315   5.675   1.878   3.718 -1.7311  0.2034 -1.9614
  107POPC   H9Y14316   5.521   1.962   3.769 -0.6784  1.0944 -0.0146
  107POPC  C31014317   5.702   2.010   3.875  0.5173 -0.1999 -0.6276
  107POPC  H10X14318   5.793   2.069   3.851  1.9984 -2.6696 -1.4376
  107POPC  H10Y14319   5.726   1.913   3.923 -0.2667 -0.6076 -1.0321
  107POPC  C31114320   5.620   2.087   3.981  0.9386  0.0885 -0.1809
  107POPC  H11X14321   5.530   2.027   4.010  1.5115 -0.0471  1.4335
  107POPC  H11Y14322   5.575   2.181   3.943  0.4079  0.7146  1.8309
  107POPC  C31214323   5.705   2.117   4.107  0.0466 -0.1872 -0.5448
  107POPC  H12X14324   5.651   2.199   4.159 -1.4995 -0.7305 -1.2197
  107POPC  H12Y14325   5.809   2.151   4.088 -0.4243  0.5954 -1.8670
  107POPC  C31314326   5.713   1.998   4.205  0.4379  0.5095 -0.2712
  107POPC  H13X14327   5.750   1.909   4.149 -1.3098  0.1306 -0.8937
  107POPC  H13Y14328   5.619   1.996   4.265  2.9055 -0.6441  3.9489
  107POPC  C31414329   5.815   2.016   4.318  0.4716  0.7692  0.3002
  107POPC  H14X14330   5.784   2.110   4.368 -1.7035  0.3664 -0.1942
  107POPC  H14Y14331   5.917   2.023   4.273  0.6250 -2.1206 -0.0017
  107POPC  C31514332   5.834   1.904   4.427  0.2483  0.8676  0.2747
  107POPC  H15X14333   5.898   1.937   4.512 -0.7209  2.7602  0.3339
  107POPC  H15Y14334   5.899   1.825   4.385  2.6948  2.6727  0.4141
  107POPC  C31614335   5.701   1.843   4.489  0.4963  0.4043  0.2390
  107POPC  H16X14336   5.731   1.747   4.538 -0.1264  1.0399  1.9529
  107POPC  H16Y14337   5.627   1.815   4.412 -0.7937  1.7573  0.9233
  107POPC  H16Z14338   5.659   1.908   4.569 -1.9178 -1.0967  0.2835
  108POPC     N14339   5.281   1.341   2.356  0.1051  0.0325 -0.6210
  108POPC   C1214340   5.412   1.269   2.383 -0.2359 -0.0434 -0.7250
  108POPC  H12A14341   5.464   1.325   2.459 -0.3662 -1.5521  0.5256
  108POPC  H12B14342   5.475   1.265   2.295 -1.3926  2.9131 -1.8105
  108POPC   C1314343   5.193   1.271   2.260 -0.1739  0.2975  0.0469
  108POPC  H13A14344   5.235   1.260   2.161  1.2031 -1.3905  0.7559
  108POPC  H13B14345   5.180   1.169   2.293  1.1976  0.3825  0.9133
  108POPC  H13C14346   5.099   1.323   2.253 -0.2803  0.1481  0.3246
  108POPC   C1414347   5.192   1.345   2.484  0.4833 -0.6629 -0.2165
  108POPC  H14A14348   5.240   1.381   2.573  0.9122 -1.8383  0.0393
  108POPC  H14B14349   5.102   1.400   2.457 -0.3202 -1.6596  0.3574
  108POPC  H14C14350   5.162   1.246   2.515 -0.7986  0.3307  1.8840
  108POPC   C1514351   5.296   1.480   2.305 -0.2477  0.2977 -0.2403
  108POPC  H15A14352   5.349   1.492   2.212 -0.6476  1.0955 -0.3744
  108POPC  H15B14353   5.349   1.542   2.375 -1.3447  1.3543 -0.3279
  108POPC  H15C14354   5.197   1.523   2.302 -1.2526 -1.8365 -0.2014
  108POPC   C1114355   5.402   1.127   2.438 -0.1511  0.7789 -0.1237
  108POPC  H11A14356   5.341   1.131   2.531 -0.7659  0.3675 -0.4995
  108POPC  H11B14357   5.505   1.102   2.470  0.5038  2.1077 -1.0672
  108POPC     P14358   5.324   0.885   2.376 -0.0768  0.3433  0.1600
  108POPC   O1314359   5.451   0.821   2.419  0.3686  0.0459  0.2224
  108POPC   O1414360   5.255   0.828   2.258  0.2175 -0.0881 -0.0733
  108POPC   O1214361   5.358   1.034   2.336  0.8597 -0.0564 -0.7150
  108POPC   O1114362   5.225   0.898   2.498  0.6941  0.7092  0.3486
  108POPC    C114363   5.084   0.925   2.468  0.2442  0.7457 -0.0269
  108POPC    HA14364   5.047   0.871   2.379 -0.2246  0.4899  0.3162
  108POPC    HB14365   5.070   1.035   2.460 -2.5196  0.5635  1.2779
  108POPC    C214366   4.995   0.875   2.584 -0.3920  0.0585  0.3447
  108POPC    HS14367   4.905   0.939   2.590 -0.6830 -0.4680  2.5155
  108POPC   O2114368   5.059   0.873   2.710  0.0427 -1.1238  0.5677
  108POPC   C2114369   5.101   0.991   2.754  0.1197 -0.4819 -0.0795
  108POPC   O2214370   5.068   1.102   2.709 -0.0420 -0.4125 -0.0900
  108POPC   C2214371   5.188   0.970   2.881  0.0047  0.2377 -0.5382
  108POPC   H2R14372   5.186   1.074   2.920 -3.0897  0.2329 -0.3882
  108POPC   H2S14373   5.288   0.934   2.847  0.1419  0.0953  0.0197
  108POPC    C314374   4.932   0.733   2.544  0.0032 -0.2358  0.2774
  108POPC    HX14375   5.019   0.667   2.524 -0.7174 -0.9869 -0.5059
  108POPC    HY14376   4.872   0.749   2.452  0.2866  0.4273  0.2023
  108POPC   O3114377   4.847   0.678   2.644  0.1425 -0.1689 -0.5332
  108POPC   C3114378   4.809   0.554   2.644 -0.4955 -0.1815  0.2491
  108POPC   O3214379   4.837   0.474   2.559  0.4111 -0.5687 -0.0447
  108POPC   C3214380   4.717   0.527   2.763  0.0015  0.1597 -0.4541
  108POPC   H2X14381   4.643   0.448   2.736  0.3968 -0.3560 -0.0415
  108POPC   H2Y14382   4.670   0.626   2.783 -1.1553 -0.3278 -0.6547
  108POPC   C2314383   5.119   0.890   2.992  0.1650  0.3120 -0.6503
  108POPC   H3R14384   5.122   0.782   2.970 -3.2618 -0.1054  0.3714
  108POPC   H3S14385   5.019   0.937   3.000 -0.4324 -0.7872 -1.5108
  108POPC   C2414386   5.196   0.920   3.126  0.6644 -0.5614  0.0518
  108POPC   H4R14387   5.147   0.873   3.214 -3.9107  0.4129 -1.6760
  108POPC   H4S14388   5.176   1.028   3.141 -0.4663 -0.7614  0.0666
  108POPC   C2514389   5.339   0.889   3.138 -0.3763  0.3588 -0.2125
  108POPC   H5R14390   5.404   0.926   3.056  1.2550  1.7242  1.5961
  108POPC   H5S14391   5.350   0.778   3.147 -1.1915  0.0472 -2.4523
  108POPC   C2614392   5.407   0.936   3.269  0.7380  0.2334  0.3907
  108POPC   H6R14393   5.360   0.892   3.359 -0.8864  2.0915  0.5152
  108POPC   H6S14394   5.400   1.046   3.281  0.3466  0.3318 -0.6354
  108POPC   C2714395   5.552   0.885   3.274  0.5750 -0.2404  0.0609
  108POPC   H7R14396   5.616   0.946   3.207  0.2362 -1.8261 -1.7745
  108POPC   H7S14397   5.560   0.783   3.231 -0.2641  0.4313 -1.8207
  108POPC   C2814398   5.618   0.891   3.413 -0.2111  0.0464  0.4138
  108POPC   H8R14399   5.538   0.879   3.489 -1.4762  0.0153 -0.9012
  108POPC   H8S14400   5.660   0.993   3.430  1.0643 -0.1868 -1.0598
  108POPC   C2914401   5.722   0.783   3.429 -0.0966  1.0182 -0.9537
  108POPC   H9114402   5.814   0.805   3.373  1.0075 -0.3547  0.2293
  108POPC  C21014403   5.707   0.661   3.488  0.1565 -0.1074 -0.1269
  108POPC  H10114404   5.790   0.591   3.503  0.8349  0.4893 -0.9824
  108POPC  C21114405   5.584   0.603   3.557 -0.7369 -0.2184 -0.0349
  108POPC  H11R14406   5.497   0.671   3.545  0.1615  1.5717  2.6664
  108POPC  H11S14407   5.596   0.577   3.664  0.0272  0.3005  0.0167
  108POPC  C21214408   5.553   0.466   3.502  0.0272  0.3106  0.5753
  108POPC  H12R14409   5.472   0.427   3.567 -0.4685 -0.4250 -0.4661
  108POPC  H12S14410   5.639   0.395   3.503 -0.9010 -0.9107 -1.3492
  108POPC  C21314411   5.499   0.469   3.354 -0.1062  0.0398  0.0717
  108POPC  H13R14412   5.558   0.519   3.274 -1.9966  2.4384  0.0497
  108POPC  H13S14413   5.408   0.533   3.365 -0.5367 -0.4584 -0.5095
  108POPC  C21414414   5.444   0.338   3.302 -0.1666  0.1872  0.0230
  108POPC  H14R14415   5.391   0.285   3.384  1.6655 -0.0575  1.1005
  108POPC  H14S14416   5.536   0.283   3.272 -0.5318 -0.8321  0.7118
  108POPC  C21514417   5.358   0.342   3.165  0.6958  0.0743 -0.2096
  108POPC  H15R14418   5.342   0.233   3.150  1.0176  0.1137 -0.9165
  108POPC  H15S14419   5.417   0.395   3.087 -1.0572 -0.1920 -1.7656
  108POPC  C21614420   5.224   0.410   3.174  0.1566 -0.1033  0.7905
  108POPC  H16R14421   5.239   0.516   3.207  0.2593  1.3305 -3.3637
  108POPC  H16S14422   5.173   0.365   3.262  0.3612  0.3164  1.1298
  108POPC  C21714423   5.131   0.408   3.054 -0.0417  0.8464 -0.2424
  108POPC  H17R14424   5.188   0.458   2.972 -2.8295  1.3501 -1.9896
  108POPC  H17S14425   5.049   0.473   3.089  0.8980  1.2805  1.2541
  108POPC  C21814426   5.089   0.269   2.999  0.0557 -0.3586 -0.0362
  108POPC  H18R14427   5.175   0.200   2.990 -0.2848 -1.0066  1.4298
  108POPC  H18S14428   5.024   0.280   2.909 -3.0573  3.3246  2.3232
  108POPC  H18T14429   5.028   0.223   3.080  1.4359  1.7339  2.3201
  108POPC   C3314430   4.797   0.477   2.884 -0.0593  0.2308 -0.7392
  108POPC   H3X14431   4.872   0.556   2.908  0.9038 -1.1108  0.8965
  108POPC   H3Y14432   4.849   0.381   2.864 -0.7538 -0.7657  1.8354
  108POPC   C3414433   4.693   0.469   2.993  0.4323  0.0170  0.1842
  108POPC   H4X14434   4.619   0.391   2.966  0.6124  0.0473 -0.4230
  108POPC   H4Y14435   4.642   0.567   2.999  0.1624 -0.1304  0.3347
  108POPC   C3514436   4.749   0.448   3.134  0.0875  0.5523  0.1732
  108POPC   H5X14437   4.832   0.374   3.129  0.7694  1.2020  1.3745
  108POPC   H5Y14438   4.671   0.408   3.202  0.9442 -2.0478 -0.2801
  108POPC   C3614439   4.800   0.577   3.203 -0.4802 -0.3555  0.1361
  108POPC   H6X14440   4.711   0.636   3.235  0.6529  1.8674 -0.5984
  108POPC   H6Y14441   4.876   0.633   3.144  0.4773  0.1004  1.7399
  108POPC   C3714442   4.876   0.538   3.328 -0.5828 -0.3915  0.0583
  108POPC   H7X14443   4.959   0.475   3.289 -0.8738 -0.0049 -1.2518
  108POPC   H7Y14444   4.830   0.474   3.406  1.6909 -0.6607  1.2687
  108POPC   C3814445   4.929   0.656   3.401 -0.5560 -0.2649 -0.0950
  108POPC   H8X14446   4.858   0.724   3.453  1.3019  0.9543  0.9675
  108POPC   H8Y14447   4.995   0.712   3.331  1.1147 -2.3798 -0.3049
  108POPC   C3914448   5.017   0.615   3.519 -0.1138 -0.0944  0.4040
  108POPC   H9X14449   5.091   0.547   3.472  0.3911  0.6167  0.1472
  108POPC   H9Y14450   4.958   0.558   3.594 -0.5809 -0.1696 -0.0164
  108POPC  C31014451   5.085   0.731   3.589 -0.5279 -1.0585  0.5210
  108POPC  H10X14452   5.013   0.797   3.643 -4.2202 -4.2782 -0.0866
  108POPC  H10Y14453   5.130   0.791   3.507 -3.7417  1.5584  0.4191
  108POPC  C31114454   5.190   0.680   3.689 -0.5198  0.1186  0.2631
  108POPC  H11X14455   5.245   0.605   3.628 -1.7157 -0.5250 -0.0550
  108POPC  H11Y14456   5.145   0.627   3.776  0.3813  0.6616  1.0834
  108POPC  C31214457   5.267   0.793   3.755  0.1837  0.0670 -0.3148
  108POPC  H12X14458   5.295   0.856   3.668  0.2377 -2.0358 -1.8720
  108POPC  H12Y14459   5.362   0.761   3.804 -1.4340 -0.2071  2.9197
  108POPC  C31314460   5.180   0.862   3.869 -0.1268  0.0172  0.1872
  108POPC  H13X14461   5.154   0.784   3.944 -0.4181 -1.3517 -1.2705
  108POPC  H13Y14462   5.094   0.900   3.810 -0.5122 -2.3308 -0.8939
  108POPC  C31414463   5.247   0.983   3.935 -0.1068  0.1662  0.0390
  108POPC  H14X14464   5.338   0.952   3.991  1.8468  1.5993 -2.1550
  108POPC  H14Y14465   5.174   1.034   4.002  0.2994 -0.2159  0.7907
  108POPC  C31514466   5.284   1.094   3.828  0.3972 -0.3091  0.0650
  108POPC  H15X14467   5.189   1.141   3.797 -0.2502 -0.5012  1.6828
  108POPC  H15Y14468   5.341   1.064   3.737  0.3422 -0.8089  0.1960
  108POPC  C31614469   5.371   1.198   3.896 -0.5028 -0.1760 -0.1420
  108POPC  H16X14470   5.467   1.151   3.929 -0.1192 -1.0048 -2.3081
  108POPC  H16Y14471   5.327   1.242   3.988 -1.3063 -1.4932  0.1327
  108POPC  H16Z14472   5.391   1.290   3.838 -2.0649  0.6295  0.5389
  109POPC     N14473   0.062   3.752   1.850 -0.0018 -0.5011  0.5987
  109POPC   C1214474  -0.035   3.862   1.899 -0.0861 -0.2389 -0.3193
  109POPC  H12A14475  -0.087   3.907   1.816  0.5337  0.0813 -0.5384
  109POPC  H12B14476   0.027   3.948   1.918 -1.0780  0.0246  2.1482
  109POPC   C1314477   0.180   3.734   1.946  1.0119 -0.1354 -0.2430
  109POPC  H13A14478   0.134   3.716   2.042  0.4852 -2.9497 -0.9295
  109POPC  H13B14479   0.248   3.656   1.917 -0.6389 -2.2556  1.2104
  109POPC  H13C14480   0.232   3.828   1.954  2.9950 -1.2220  0.2308
  109POPC   C1414481  -0.013   3.618   1.837 -0.7453 -0.1502  0.0435
  109POPC  H14A14482   0.046   3.529   1.825  0.6017  0.8019 -0.6394
  109POPC  H14B14483  -0.068   3.610   1.930  2.9695 -0.2026  2.4423
  109POPC  H14C14484  -0.086   3.609   1.758 -0.9660 -3.7198  0.4747
  109POPC   C1514485   0.108   3.784   1.712 -0.4608 -0.2918  0.4270
  109POPC  H15A14486   0.199   3.732   1.687 -0.7204  0.1848 -1.7232
  109POPC  H15B14487   0.134   3.889   1.710  0.3360 -0.4928 -1.0236
  109POPC  H15C14488   0.051   3.760   1.624  2.6502  0.5019 -1.9905
  109POPC   C1114489  -0.123   3.845   2.027  0.5916  0.2006 -0.5777
  109POPC  H11A14490  -0.203   3.771   2.006 -0.4263  1.1079 -0.0255
  109POPC  H11B14491  -0.160   3.949   2.041  0.4940  0.1326 -0.3336
  109POPC     P14492  -0.120   3.784   2.280  0.3506  0.4499 -0.4272
  109POPC   O1314493  -0.131   3.637   2.313 -0.1517  0.2471  0.2042
  109POPC   O1414494  -0.248   3.853   2.283  0.2344  0.3543  0.3657
  109POPC   O1214495  -0.042   3.802   2.142 -0.0611 -0.9060 -0.2349
  109POPC   O1114496  -0.018   3.847   2.383 -0.5863 -0.0659 -0.3312
  109POPC    C114497   0.123   3.806   2.374  0.1362 -0.5195 -0.1234
  109POPC    HA14498   0.191   3.874   2.317 -1.2375 -0.1272 -1.3429
  109POPC    HB14499   0.129   3.707   2.326  1.4225 -0.1313 -0.8072
  109POPC    C214500   0.187   3.781   2.513  0.0911  0.1050  0.5300
  109POPC    HS14501   0.134   3.691   2.551 -2.1538  1.9738  2.1129
  109POPC   O2114502   0.175   3.895   2.603  0.0837  0.0035  0.4915
  109POPC   C2114503   0.141   3.865   2.727 -0.6389  0.6708  0.2451
  109POPC   O2214504   0.123   3.749   2.764  0.1457  0.0400 -0.1786
  109POPC   C2214505   0.149   3.985   2.811  0.3588 -0.9026 -0.5331
  109POPC   H2R14506   0.084   4.052   2.751  0.5897 -0.6729 -0.5308
  109POPC   H2S14507   0.254   4.022   2.821  0.5388 -1.3469 -0.7570
  109POPC    C314508   0.339   3.738   2.507  0.2825 -0.1485 -0.3000
  109POPC    HX14509   0.399   3.824   2.472 -1.8455  0.7935 -1.8282
  109POPC    HY14510   0.339   3.661   2.426  1.4649 -0.1596 -0.3093
  109POPC   O3114511   0.383   3.705   2.636  0.1877 -0.4010 -0.3130
  109POPC   C3114512   0.361   3.581   2.673 -0.1850 -0.0783 -0.8739
  109POPC   O3214513   0.320   3.488   2.603 -0.4964 -0.3662 -0.4201
  109POPC   C3214514   0.387   3.573   2.824  0.1655 -0.0755  0.3945
  109POPC   H2X14515   0.365   3.676   2.860  1.4243  0.3915 -0.1405
  109POPC   H2Y14516   0.493   3.544   2.837 -0.1489 -2.4559 -1.5793
  109POPC   C2314517   0.085   3.972   2.954  0.4702 -0.2079  0.2541
  109POPC   H3R14518   0.115   4.062   3.011 -2.0836  1.8371 -1.4080
  109POPC   H3S14519   0.120   3.877   3.000 -0.7417 -1.1237 -0.6675
  109POPC   C2414520  -0.069   3.974   2.949  0.2834 -0.5099 -1.0608
  109POPC   H4R14521  -0.109   3.931   3.043 -0.4146 -0.1101 -1.1662
  109POPC   H4S14522  -0.106   3.915   2.863  1.1523  1.6294 -2.9972
  109POPC   C2514523  -0.131   4.121   2.929 -0.3764  0.4910 -0.3650
  109POPC   H5R14524  -0.238   4.114   2.897 -0.0840  0.9550 -1.5159
  109POPC   H5S14525  -0.083   4.172   2.842 -0.3704  0.7840 -0.1905
  109POPC   C2614526  -0.125   4.201   3.060  0.1638 -0.2883  0.0073
  109POPC   H6R14527  -0.023   4.233   3.089 -0.4119  1.7554 -0.0564
  109POPC   H6S14528  -0.177   4.133   3.131 -0.2300  0.1934  0.1818
  109POPC   C2714529  -0.204   4.328   3.063  0.3887 -0.6883  0.2833
  109POPC   H7R14530  -0.301   4.311   3.012  0.2266 -1.4465  0.8165
  109POPC   H7S14531  -0.146   4.410   3.015 -0.9265 -0.0703 -0.2892
  109POPC   C2814532  -0.246   4.375   3.205  0.7474  0.8553 -0.2495
  109POPC   H8R14533  -0.153   4.394   3.262  2.1168 -3.4331 -0.7007
  109POPC   H8S14534  -0.299   4.291   3.254  1.2490  0.2924 -0.6575
  109POPC   C2914535  -0.342   4.491   3.182 -0.2772 -0.2526 -0.8598
  109POPC   H9114536  -0.399   4.481   3.088 -2.2459 -3.7290  0.5202
  109POPC  C21014537  -0.416   4.558   3.274 -0.4820  0.1400 -0.1268
  109POPC  H10114538  -0.486   4.634   3.236 -0.4275 -0.4701 -1.5105
  109POPC  C21114539  -0.397   4.565   3.422  0.6494 -0.2565 -0.1524
  109POPC  H11R14540  -0.348   4.476   3.465 -1.1842  0.2058  3.2780
  109POPC  H11S14541  -0.491   4.588   3.477  0.1230  0.4202 -1.2978
  109POPC  C21214542  -0.316   4.687   3.445  0.2090  0.0799  0.3459
  109POPC  H12R14543  -0.371   4.772   3.400  2.2063  0.1613 -2.2232
  109POPC  H12S14544  -0.217   4.681   3.394 -0.3710 -0.4999 -0.7531
  109POPC  C21314545  -0.300   4.737   3.590  0.0092  0.0600 -1.0378
  109POPC  H13R14546  -0.243   4.665   3.653  0.3617  0.7545 -0.5413
  109POPC  H13S14547  -0.402   4.751   3.630  0.5816  0.9533  0.1927
  109POPC  C21414548  -0.222   4.866   3.603  0.2742 -0.2855 -0.5017
  109POPC  H14R14549  -0.140   4.870   3.528  0.3851  0.7986 -0.3415
  109POPC  H14S14550  -0.171   4.874   3.701 -0.7711  0.5084 -0.0028
  109POPC  C21514551  -0.308   4.994   3.600 -0.2256 -0.2528  0.0664
  109POPC  H15R14552  -0.398   4.987   3.666 -0.7996 -0.7742 -0.7602
  109POPC  H15S14553  -0.341   5.003   3.495 -0.0805 -1.4121 -0.0852
  109POPC  C21614554  -0.220   5.113   3.624 -0.5800  0.6006 -0.0419
  109POPC  H16R14555  -0.128   5.101   3.563 -1.0388  0.2378 -0.6742
  109POPC  H16S14556  -0.191   5.118   3.731 -1.8313 -2.6538  0.5671
  109POPC  C21714557  -0.289   5.244   3.586 -0.4782 -0.0328  0.2546
  109POPC  H17R14558  -0.379   5.264   3.648 -0.2646 -2.0702  1.3188
  109POPC  H17S14559  -0.328   5.245   3.482  0.3609  1.4113 -0.0683
  109POPC  C21814560  -0.212   5.378   3.594 -0.2065 -0.2811  0.1133
  109POPC  H18R14561  -0.117   5.379   3.536 -0.5374  0.0339 -0.4437
  109POPC  H18S14562  -0.183   5.396   3.699  2.0935 -0.5553 -0.4103
  109POPC  H18T14563  -0.277   5.459   3.554  0.2870 -0.2611 -0.6793
  109POPC   C3314564   0.295   3.482   2.897  0.8463 -0.6923 -0.0535
  109POPC   H3X14565   0.331   3.377   2.891  1.0832 -0.6558  0.6093
  109POPC   H3Y14566   0.195   3.480   2.848  1.7579  0.7235 -2.1155
  109POPC   C3414567   0.269   3.531   3.046  0.0165  0.7844  0.8621
  109POPC   H4X14568   0.218   3.629   3.051  0.1401  0.7874  3.0440
  109POPC   H4Y14569   0.365   3.535   3.103  0.7643 -0.9577 -0.1840
  109POPC   C3514570   0.168   3.439   3.112  0.1340  0.0756 -0.3185
  109POPC   H5X14571   0.228   3.348   3.134  1.0828  0.8478  0.3538
  109POPC   H5Y14572   0.089   3.421   3.036 -0.1485  1.6793 -0.4390
  109POPC   C3614573   0.097   3.493   3.239 -0.2250  0.1160  0.0180
  109POPC   H6X14574   0.015   3.421   3.256 -0.2825 -0.0446 -0.8799
  109POPC   H6Y14575   0.048   3.587   3.205 -0.2004 -0.5918 -2.1423
  109POPC   C3714576   0.183   3.483   3.366 -0.9832  0.1703 -0.1405
  109POPC   H7X14577   0.254   3.569   3.374 -2.1810  1.3277 -1.3420
  109POPC   H7Y14578   0.232   3.384   3.365 -0.4915  0.3876  1.0047
  109POPC   C3814579   0.101   3.478   3.496  0.1473 -1.1231 -0.0883
  109POPC   H8X14580   0.187   3.454   3.562  1.0505 -2.0823 -1.5557
  109POPC   H8Y14581   0.035   3.388   3.499 -3.3980  1.2668  0.4548
  109POPC   C3914582   0.026   3.606   3.526  0.2180 -0.2547 -0.6938
  109POPC   H9X14583   0.082   3.700   3.504  1.7766 -0.9358  0.1501
  109POPC   H9Y14584   0.032   3.603   3.637  2.3463 -0.0682 -0.7517
  109POPC  C31014585  -0.112   3.624   3.467  0.2175  0.2433 -0.7590
  109POPC  H10X14586  -0.172   3.531   3.476  1.3898 -0.4201  0.4629
  109POPC  H10Y14587  -0.110   3.640   3.357  0.7746 -0.1015 -0.8058
  109POPC  C31114588  -0.190   3.737   3.543 -0.2301 -0.0583  0.7580
  109POPC  H11X14589  -0.121   3.821   3.568  0.0241  1.1420 -3.1792
  109POPC  H11Y14590  -0.223   3.698   3.641 -1.2326  4.9730  2.7591
  109POPC  C31214591  -0.304   3.793   3.470 -0.5249 -0.1755  0.0904
  109POPC  H12X14592  -0.344   3.870   3.539  2.7964  3.7339 -1.8942
  109POPC  H12Y14593  -0.372   3.708   3.450  0.6976 -1.3303  0.7192
  109POPC  C31314594  -0.264   3.869   3.341 -0.1932  0.4274  0.0761
  109POPC  H13X14595  -0.214   3.795   3.275 -1.8355 -1.1814  0.5492
  109POPC  H13Y14596  -0.194   3.941   3.389 -0.5401 -0.1497  1.5009
  109POPC  C31414597  -0.382   3.940   3.272 -0.1756  0.3103 -0.6363
  109POPC  H14X14598  -0.343   4.033   3.224  1.3638 -1.3534 -2.7860
  109POPC  H14Y14599  -0.448   3.963   3.358  0.5326 -0.7888  0.2163
  109POPC  C31514600  -0.467   3.846   3.184 -0.2637 -0.3085 -0.2726
  109POPC  H15X14601  -0.567   3.885   3.157 -0.3404 -1.1377 -1.2168
  109POPC  H15Y14602  -0.470   3.750   3.240  2.3674  0.2652  1.0002
  109POPC  C31614603  -0.390   3.821   3.057 -0.2355 -0.8842 -0.1288
  109POPC  H16X14604  -0.451   3.771   2.978  0.1113  0.5693 -1.3694
  109POPC  H16Y14605  -0.294   3.766   3.069  2.3867  3.3459  0.2582
  109POPC  H16Z14606  -0.376   3.925   3.021  1.4456 -0.5768  1.2709
  110POPC     N14607   1.884   1.404   2.548 -0.0710  0.3734  0.0089
  110POPC   C1214608   1.736   1.408   2.537 -1.0657  0.3553 -0.1852
  110POPC  H12A14609   1.701   1.507   2.561 -0.5149  0.4605  0.1991
  110POPC  H12B14610   1.702   1.337   2.611  1.3499 -0.4055  0.2673
  110POPC   C1314611   1.940   1.274   2.516 -0.0432  0.3174  0.3359
  110POPC  H13A14612   2.047   1.277   2.523  0.0358 -1.0514 -0.0929
  110POPC  H13B14613   1.903   1.200   2.586  1.1584 -0.3412  0.2865
  110POPC  H13C14614   1.919   1.243   2.415  0.0782  1.3820 -0.0230
  110POPC   C1414615   1.960   1.506   2.472  0.0869  0.1179  0.1964
  110POPC  H14A14616   1.981   1.466   2.374  0.1152 -2.8284  1.2721
  110POPC  H14B14617   1.897   1.592   2.460 -1.5085 -0.9669  0.4086
  110POPC  H14C14618   2.051   1.532   2.524  2.0075 -2.2675 -1.7344
  110POPC   C1514619   1.921   1.434   2.695 -0.6130 -0.0416  0.5536
  110POPC  H15A14620   1.913   1.540   2.718  2.5385  0.1922  1.1193
  110POPC  H15B14621   2.023   1.402   2.715 -0.5356  1.0783  2.1380
  110POPC  H15C14622   1.859   1.387   2.769  0.5927 -0.5066  1.3118
  110POPC   C1114623   1.687   1.370   2.397  0.3922  0.0384  0.5109
  110POPC  H11A14624   1.752   1.414   2.319 -0.9606 -0.2072 -0.8034
  110POPC  H11B14625   1.588   1.419   2.382 -0.1673 -0.9568  0.8697
  110POPC     P14626   1.576   1.146   2.470  0.0279 -0.0505  0.4938
  110POPC   O1314627   1.587   1.009   2.410 -0.1116  0.0220 -0.2152
  110POPC   O1414628   1.440   1.207   2.472 -0.3365  0.0872  0.2755
  110POPC   O1214629   1.676   1.231   2.379 -0.4157 -0.4780 -0.2560
  110POPC   O1114630   1.634   1.156   2.620  0.3395 -0.2837 -0.1360
  110POPC    C114631   1.664   1.045   2.698  0.1317  0.7108  0.0250
  110POPC    HA14632   1.773   1.023   2.695 -0.2595 -1.9678  1.9312
  110POPC    HB14633   1.611   0.952   2.671 -2.0630  2.2437 -1.2875
  110POPC    C214634   1.620   1.061   2.848 -0.2844  0.2577  0.3212
  110POPC    HS14635   1.675   1.149   2.889 -0.4872  0.1362  0.8649
  110POPC   O2114636   1.658   0.940   2.922 -0.3051 -0.3104 -0.1145
  110POPC   C2114637   1.785   0.942   2.962  0.4662  0.0790 -0.3057
  110POPC   O2214638   1.864   1.031   2.943  0.2161 -0.0829 -0.4008
  110POPC   C2214639   1.813   0.796   3.014 -0.0750  0.4414 -0.1840
  110POPC   H2R14640   1.777   0.790   3.119  0.5084 -1.9435 -0.0587
  110POPC   H2S14641   1.923   0.788   3.007 -0.0666 -0.2949  0.6225
  110POPC    C314642   1.467   1.083   2.855 -0.4200 -0.4220 -0.9610
  110POPC    HX14643   1.427   0.981   2.836  0.6516 -0.8629 -0.9084
  110POPC    HY14644   1.445   1.147   2.767  0.0667 -0.6233 -1.2353
  110POPC   O3114645   1.429   1.144   2.981 -0.3783  0.1028 -0.6197
  110POPC   C3114646   1.296   1.139   3.002  0.5794  0.0304  0.2245
  110POPC   O3214647   1.219   1.108   2.914  0.0553 -0.4288  0.2541
  110POPC   C3214648   1.248   1.196   3.144  0.1034 -0.1429  0.0973
  110POPC   H2X14649   1.334   1.236   3.201 -0.5742  0.9113  0.3986
  110POPC   H2Y14650   1.209   1.103   3.192  1.6665 -0.2686  1.1833
  110POPC   C2314651   1.750   0.687   2.928  0.4346  0.1453  0.2268
  110POPC   H3R14652   1.836   0.622   2.899  1.0845  0.7441  0.7801
  110POPC   H3S14653   1.716   0.710   2.825 -0.8353 -5.1044 -0.8227
  110POPC   C2414654   1.637   0.608   2.989  0.2903 -0.1309  0.3083
  110POPC   H4R14655   1.577   0.547   2.919  2.1227 -2.2925  0.4993
  110POPC   H4S14656   1.566   0.671   3.048 -2.0099 -1.6156 -0.7112
  110POPC   C2514657   1.691   0.494   3.066  0.1478  0.3503 -1.0143
  110POPC   H5R14658   1.761   0.533   3.143  0.7939  1.7008 -2.2446
  110POPC   H5S14659   1.753   0.431   2.998 -0.2712  0.4189 -1.4573
  110POPC   C2614660   1.581   0.417   3.142 -0.4818 -0.5621 -0.1718
  110POPC   H6R14661   1.602   0.308   3.154 -0.7046 -0.4338  1.6461
  110POPC   H6S14662   1.484   0.429   3.089 -0.5942  2.0514  0.5103
  110POPC   C2714663   1.544   0.474   3.285  0.1169  0.1528  0.0601
  110POPC   H7R14664   1.534   0.584   3.272 -0.2161 -0.0229 -1.3017
  110POPC   H7S14665   1.628   0.470   3.357  2.0488  0.2724 -2.0803
  110POPC   C2814666   1.419   0.412   3.350  0.0907 -0.0961  0.3429
  110POPC   H8R14667   1.445   0.307   3.375  1.8679 -0.4791 -2.5842
  110POPC   H8S14668   1.336   0.401   3.277  0.0491 -1.8293  0.6177
  110POPC   C2914669   1.376   0.486   3.466 -0.5397 -0.6089 -1.3014
  110POPC   H9114670   1.439   0.486   3.557 -0.6118  2.1507 -1.1547
  110POPC  C21014671   1.252   0.548   3.472  0.0639 -0.6560  0.4710
  110POPC  H10114672   1.226   0.613   3.557  0.5107 -0.8658  0.7727
  110POPC  C21114673   1.147   0.564   3.362  0.2432  0.0373  0.1260
  110POPC  H11R14674   1.182   0.530   3.262  0.1064  1.3786 -0.4065
  110POPC  H11S14675   1.119   0.672   3.360  0.6416  0.1430  0.2058
  110POPC  C21214676   1.021   0.476   3.393  0.0918  0.0048 -0.1066
  110POPC  H12R14677   0.988   0.505   3.495 -1.5623  2.2422 -1.1830
  110POPC  H12S14678   1.045   0.368   3.395 -1.8127 -0.4441  0.9385
  110POPC  C21314679   0.898   0.493   3.294 -0.0818 -0.7090  0.6698
  110POPC  H13R14680   0.812   0.442   3.341 -1.1202  0.7257  0.3818
  110POPC  H13S14681   0.928   0.449   3.196 -1.4282 -0.1284 -0.0253
  110POPC  C21414682   0.866   0.639   3.253 -0.1431 -0.1246 -0.1027
  110POPC  H14R14683   0.784   0.647   3.179 -0.3416  2.9627  0.3024
  110POPC  H14S14684   0.957   0.667   3.195  0.4643 -0.5632  0.6207
  110POPC  C21514685   0.851   0.742   3.371  0.2196  0.3464 -0.3522
  110POPC  H15R14686   0.921   0.737   3.457 -0.2596 -0.2261  0.0074
  110POPC  H15S14687   0.757   0.716   3.423  0.7539  0.0665  0.5078
  110POPC  C21614688   0.839   0.890   3.337 -1.1951  0.6362  0.0189
  110POPC  H16R14689   0.945   0.922   3.330 -0.0806 -2.0586  2.4066
  110POPC  H16S14690   0.796   0.939   3.427 -0.3024 -0.7262  1.2368
  110POPC  C21714691   0.767   0.923   3.203 -0.5878 -0.0752 -0.4047
  110POPC  H17R14692   0.669   0.874   3.220 -1.8999  2.6867  0.6851
  110POPC  H17S14693   0.828   0.888   3.116 -0.4514  1.0121 -0.7628
  110POPC  C21814694   0.741   1.070   3.183 -0.0152 -0.8568 -0.0074
  110POPC  H18R14695   0.836   1.120   3.155 -0.1493 -0.5551  0.0792
  110POPC  H18S14696   0.701   1.115   3.276 -0.4053  0.4923 -0.8043
  110POPC  H18T14697   0.673   1.082   3.096 -0.6950 -1.6723  0.3974
  110POPC   C3314698   1.134   1.301   3.136  0.5488 -0.1737 -0.2251
  110POPC   H3X14699   1.046   1.263   3.079  0.8408 -1.3731  0.0971
  110POPC   H3Y14700   1.164   1.400   3.096  3.6647 -1.5176 -1.5633
  110POPC   C3414701   1.063   1.307   3.278  0.1300 -0.6650 -0.1115
  110POPC   H4X14702   0.992   1.222   3.289 -0.9345  0.1968 -0.1269
  110POPC   H4Y14703   1.001   1.399   3.265  0.8242 -0.4454 -2.4847
  110POPC   C3514704   1.162   1.315   3.393  0.7027  0.0864  0.1340
  110POPC   H5X14705   1.231   1.228   3.401  1.0168  0.3573  0.3923
  110POPC   H5Y14706   1.101   1.305   3.486 -0.9455 -1.6333 -1.0552
  110POPC   C3614707   1.246   1.435   3.384 -0.2978  0.0578  0.0657
  110POPC   H6X14708   1.184   1.528   3.387  3.2695  2.8176 -2.3171
  110POPC   H6Y14709   1.294   1.444   3.284 -0.8560 -3.5011 -0.6375
  110POPC   C3714710   1.352   1.439   3.494 -0.1259 -0.2765 -0.2796
  110POPC   H7X14711   1.430   1.360   3.490  0.3741  0.1870  0.2732
  110POPC   H7Y14712   1.297   1.421   3.589 -1.0942  1.5263 -0.4567
  110POPC   C3814713   1.407   1.582   3.516  0.1555 -0.0985 -0.1941
  110POPC   H8X14714   1.325   1.642   3.561  0.5448  2.9704 -3.1850
  110POPC   H8Y14715   1.425   1.615   3.411 -0.7163  0.5137 -0.1644
  110POPC   C3914716   1.537   1.579   3.594  0.4706 -0.9133 -0.8673
  110POPC   H9X14717   1.571   1.684   3.601 -0.2654 -0.6931 -0.6090
  110POPC   H9Y14718   1.620   1.522   3.545  1.1142 -0.5819 -0.1773
  110POPC  C31014719   1.515   1.535   3.736 -1.2134 -0.3616 -0.2415
  110POPC  H10X14720   1.490   1.427   3.736  0.0573 -0.7024  1.3908
  110POPC  H10Y14721   1.415   1.570   3.769 -0.8496  0.3727  0.1212
  110POPC  C31114722   1.621   1.564   3.843  0.5475  0.0759 -0.1267
  110POPC  H11X14723   1.589   1.529   3.943  1.7228  0.9495  0.5856
  110POPC  H11Y14724   1.626   1.675   3.841  2.1005  0.0363 -1.5452
  110POPC  C31214725   1.760   1.521   3.812 -0.8187  0.7311  0.2771
  110POPC  H12X14726   1.830   1.543   3.895  2.0943 -1.0955 -1.5166
  110POPC  H12Y14727   1.803   1.564   3.720 -1.6956  0.0092 -0.4925
  110POPC  C31314728   1.771   1.367   3.790  0.1695  0.0677 -0.1847
  110POPC  H13X14729   1.701   1.335   3.710 -1.0518 -0.4302  1.0482
  110POPC  H13Y14730   1.721   1.323   3.879  0.2301 -0.3674 -0.3599
  110POPC  C31414731   1.908   1.299   3.774  0.0721 -0.3954 -0.6873
  110POPC  H14X14732   1.975   1.340   3.852 -0.8632 -1.6371  0.8313
  110POPC  H14Y14733   1.939   1.309   3.668 -1.5718 -2.9584 -1.5134
  110POPC  C31514734   1.901   1.139   3.804  0.3103 -0.8803 -0.8343
  110POPC  H15X14735   1.863   1.091   3.712 -2.0357  2.0018 -1.5024
  110POPC  H15Y14736   1.828   1.116   3.884  0.0908 -0.8848 -1.0347
  110POPC  C31614737   2.033   1.080   3.849  0.5939 -0.2034  0.1715
  110POPC  H16X14738   2.104   1.067   3.765  1.7409  2.9142  0.5256
  110POPC  H16Y14739   2.019   0.978   3.890  1.3763 -0.7226 -0.8065
  110POPC  H16Z14740   2.086   1.148   3.919  0.1620  1.1691 -0.7840
  111POPC     N14741   4.241   5.906   1.766 -0.1980 -1.2051 -0.1828
  111POPC   C1214742   4.323   5.891   1.889  0.2926 -0.7998  0.0305
  111POPC  H12A14743   4.394   5.971   1.905  2.5185 -2.1237 -2.4064
  111POPC  H12B14744   4.393   5.810   1.874 -0.5751 -1.5059 -0.2883
  111POPC   C1314745   4.338   5.911   1.646  0.7863 -0.0569  0.2036
  111POPC  H13A14746   4.283   5.951   1.562  0.1165  1.7787  1.4680
  111POPC  H13B14747   4.423   5.974   1.664 -0.9003  2.5897 -0.5758
  111POPC  H13C14748   4.362   5.808   1.623  0.7804 -0.0798  0.2988
  111POPC   C1414749   4.137   5.803   1.764  0.6963  0.2561 -0.6231
  111POPC  H14A14750   4.180   5.704   1.760 -2.2029 -1.1080 -0.3895
  111POPC  H14B14751   4.078   5.814   1.853  2.4938 -0.2962  0.6939
  111POPC  H14C14752   4.075   5.811   1.676 -0.2005  0.7919  0.0444
  111POPC   C1514753   4.165   6.034   1.768  0.2079  0.4751  0.3182
  111POPC  H15A14754   4.238   6.113   1.774 -1.5446  2.4190 -1.8973
  111POPC  H15B14755   4.115   6.028   1.864  1.3773 -1.6290  0.8589
  111POPC  H15C14756   4.086   6.043   1.695  0.6769 -0.6898 -0.3486
  111POPC   C1114757   4.239   5.872   2.019  0.0355 -0.5067  0.3636
  111POPC  H11A14758   4.315   5.855   2.098 -0.7407 -0.1499  1.1954
  111POPC  H11B14759   4.169   5.787   2.017  1.3450 -1.7437  2.5370
  111POPC     P14760   4.244   6.107   2.136 -0.0535 -0.1393 -0.0410
  111POPC   O1314761   4.144   6.214   2.150 -0.7193 -0.6776 -0.5709
  111POPC   O1414762   4.373   6.133   2.076  0.1973  0.7881 -0.0512
  111POPC   O1214763   4.166   5.988   2.052 -0.0550  0.0309 -0.2973
  111POPC   O1114764   4.270   6.039   2.281  0.4725 -0.0244 -0.0019
  111POPC    C114765   4.143   5.995   2.337  0.2621  0.2485  0.3904
  111POPC    HA14766   4.164   5.906   2.400 -1.4270 -1.1075 -0.8584
  111POPC    HB14767   4.070   5.955   2.264 -0.8923 -0.9763  2.1488
  111POPC    C214768   4.077   6.101   2.421 -0.0353 -0.4297  0.6420
  111POPC    HS14769   4.058   6.191   2.359 -1.5240 -1.1944 -0.0757
  111POPC   O2114770   4.158   6.132   2.537  0.4631 -0.0294 -0.5730
  111POPC   C2114771   4.130   6.241   2.602 -0.5240  0.2559  0.5097
  111POPC   O2214772   4.030   6.309   2.584 -0.1299 -0.3408  0.3058
  111POPC   C2214773   4.231   6.265   2.717 -0.1356 -0.0951  0.0704
  111POPC   H2R14774   4.221   6.374   2.735  0.2292 -0.2257  1.1207
  111POPC   H2S14775   4.336   6.239   2.691 -0.6331 -1.4570 -0.6834
  111POPC    C314776   3.934   6.051   2.450  0.3550  0.1127 -0.1254
  111POPC    HX14777   3.885   6.031   2.353 -0.4800 -0.8374  0.4719
  111POPC    HY14778   3.871   6.128   2.499 -2.1456 -2.4887  0.9870
  111POPC   O3114779   3.942   5.927   2.521 -0.0751  0.3909 -0.0188
  111POPC   C3114780   3.964   5.928   2.650  0.0647 -0.0767  0.0948
  111POPC   O3214781   3.972   6.027   2.721  0.2383 -0.2203  0.4551
  111POPC   C3214782   4.015   5.791   2.688 -0.0358  0.5133 -0.8240
  111POPC   H2X14783   4.101   5.773   2.620 -0.6986  0.1403 -1.5657
  111POPC   H2Y14784   3.942   5.715   2.653 -0.1861  0.7277 -0.9800
  111POPC   C2314785   4.199   6.191   2.849  0.0791  0.5098  0.5490
  111POPC   H3R14786   4.287   6.198   2.917  2.1336 -0.4690 -1.8495
  111POPC   H3S14787   4.198   6.082   2.828 -1.8010  0.4801  0.6756
  111POPC   C2414788   4.076   6.234   2.926  0.1657 -0.1678 -0.1944
  111POPC   H4R14789   3.985   6.232   2.863  0.6135  0.8886 -0.9094
  111POPC   H4S14790   4.098   6.339   2.955  2.2774 -0.6489  0.1454
  111POPC   C2514791   4.057   6.152   3.057  0.1184 -0.0381  0.6657
  111POPC   H5R14792   4.157   6.129   3.101 -0.1697 -1.3698  0.6493
  111POPC   H5S14793   4.005   6.056   3.042 -1.4641  1.0316 -1.1653
  111POPC   C2614794   3.967   6.226   3.163  0.6210 -0.1331 -0.2797
  111POPC   H6R14795   3.866   6.234   3.120  1.0127  1.2186 -0.9807
  111POPC   H6S14796   4.006   6.330   3.171 -1.2635  0.5828  0.0419
  111POPC   C2714797   3.974   6.151   3.294  0.0866 -0.8702 -0.4998
  111POPC   H7R14798   4.081   6.146   3.321  0.4397 -0.8163 -1.8363
  111POPC   H7S14799   3.942   6.045   3.282  0.6208 -1.0750 -0.1292
  111POPC   C2814800   3.878   6.221   3.401  0.4734 -0.1629 -0.3042
  111POPC   H8R14801   3.773   6.226   3.366 -0.4762 -3.6252  1.6144
  111POPC   H8S14802   3.908   6.325   3.427  0.3903 -0.5037  1.2621
  111POPC   C2914803   3.885   6.136   3.526  0.2027 -0.2090  0.0183
  111POPC   H9114804   3.828   6.043   3.531 -1.4860  0.7610 -0.6265
  111POPC  C21014805   3.951   6.167   3.640 -0.4480  0.0805 -0.0612
  111POPC  H10114806   3.953   6.103   3.729 -1.4647  0.1096 -0.0055
  111POPC  C21114807   4.062   6.272   3.638  0.6586 -0.4468  0.5467
  111POPC  H11R14808   4.019   6.370   3.607  0.7409 -0.7781 -0.6474
  111POPC  H11S14809   4.134   6.246   3.557 -1.0292  2.2474 -2.0162
  111POPC  C21214810   4.148   6.283   3.764 -0.2200 -0.4248  0.8234
  111POPC  H12R14811   4.148   6.195   3.831  0.6860  1.0310  2.8258
  111POPC  H12S14812   4.100   6.363   3.824 -3.4939 -0.0659 -1.9534
  111POPC  C21314813   4.296   6.304   3.739  0.0291 -0.6476  0.3806
  111POPC  H13R14814   4.302   6.403   3.687  0.5602 -1.2086 -0.6709
  111POPC  H13S14815   4.327   6.217   3.677  0.3789  0.6198 -1.3064
  111POPC  C21414816   4.381   6.303   3.865  0.1785 -0.3446 -0.4179
  111POPC  H14R14817   4.480   6.266   3.830  0.2743 -1.4220  0.9119
  111POPC  H14S14818   4.337   6.220   3.924 -1.0449  0.6687  0.1268
  111POPC  C21514819   4.411   6.436   3.947  0.2836 -0.1177  0.3798
  111POPC  H15R14820   4.317   6.487   3.974  2.1627  3.0174  1.5474
  111POPC  H15S14821   4.461   6.504   3.874  1.7092 -1.6805 -0.1782
  111POPC  C21614822   4.507   6.408   4.067 -0.1901 -0.3629 -0.4578
  111POPC  H16R14823   4.609   6.382   4.031 -0.3896  0.5352 -1.7757
  111POPC  H16S14824   4.473   6.313   4.113  2.8655 -1.1139  0.4624
  111POPC  C21714825   4.506   6.536   4.159  0.3364  0.0040 -0.2485
  111POPC  H17R14826   4.591   6.523   4.229 -0.5657  0.1860  0.9127
  111POPC  H17S14827   4.418   6.530   4.226 -0.3285  1.7587 -0.9079
  111POPC  C21814828   4.512   6.681   4.102 -0.6876  0.2727 -0.8311
  111POPC  H18R14829   4.603   6.697   4.040 -0.3554  2.5445  0.1385
  111POPC  H18S14830   4.520   6.749   4.190  0.7370 -1.4617  0.4370
  111POPC  H18T14831   4.417   6.707   4.052 -2.1068  2.5990  2.6233
  111POPC   C3314832   4.052   5.767   2.837 -0.0385  0.1165  0.0988
  111POPC   H3X14833   4.134   5.841   2.854 -0.8078  1.2865 -1.0784
  111POPC   H3Y14834   4.094   5.667   2.859 -1.5246 -0.6097 -0.3093
  111POPC   C3414835   3.939   5.783   2.942 -0.0923  0.0206  0.0794
  111POPC   H4X14836   3.852   5.720   2.915 -0.7217  0.9049 -0.0071
  111POPC   H4Y14837   3.894   5.885   2.941 -1.7846 -0.6745 -1.6100
  111POPC   C3514838   3.975   5.745   3.092  0.3301  0.0081  0.1154
  111POPC   H5X14839   4.053   5.819   3.121  0.4270 -0.1757  0.3317
  111POPC   H5Y14840   4.022   5.644   3.085  2.2751  0.5956  2.7675
  111POPC   C3614841   3.863   5.757   3.196 -0.6019  0.3405  1.0203
  111POPC   H6X14842   3.773   5.693   3.185 -1.0505  0.9096  1.3109
  111POPC   H6Y14843   3.823   5.861   3.198  0.2611  0.6921  0.2262
  111POPC   C3714844   3.908   5.732   3.336 -0.2800  0.5592  0.2236
  111POPC   H7X14845   3.989   5.805   3.353  0.5515 -0.7165  2.0183
  111POPC   H7Y14846   3.945   5.627   3.341 -1.0423  0.3233  1.4119
  111POPC   C3814847   3.803   5.760   3.448 -0.1138  0.2685 -0.1702
  111POPC   H8X14848   3.700   5.720   3.448  0.9765 -2.9241  1.9903
  111POPC   H8Y14849   3.783   5.869   3.435 -0.3543  0.1942 -0.4197
  111POPC   C3914850   3.866   5.745   3.586 -0.0374  0.1036 -0.2044
  111POPC   H9X14851   3.952   5.816   3.591 -1.3560  1.6858  1.2189
  111POPC   H9Y14852   3.901   5.640   3.593 -0.1648 -0.1055 -2.2692
  111POPC  C31014853   3.773   5.781   3.697  0.8218  0.3714  0.3204
  111POPC  H10X14854   3.670   5.739   3.688  0.7692  0.8324 -1.6102
  111POPC  H10Y14855   3.757   5.891   3.689 -0.8526  0.0147 -2.7150
  111POPC  C31114856   3.822   5.748   3.836  0.6610 -0.2814 -0.4222
  111POPC  H11X14857   3.923   5.795   3.840 -0.8886  3.3682  2.1110
  111POPC  H11Y14858   3.844   5.644   3.865 -1.1203 -1.1243 -1.9049
  111POPC  C31214859   3.729   5.798   3.950  0.4037 -0.3513 -0.1483
  111POPC  H12X14860   3.645   5.727   3.965  0.2968  0.2759  2.9786
  111POPC  H12Y14861   3.690   5.895   3.912  1.2314  0.0277 -0.0374
  111POPC  C31314862   3.803   5.826   4.080 -0.1188 -0.2638  0.2222
  111POPC  H13X14863   3.762   5.902   4.150 -1.7977 -0.0689 -0.9025
  111POPC  H13Y14864   3.905   5.864   4.061 -0.6099  1.1589  0.2669
  111POPC  C31414865   3.808   5.699   4.164  0.1585 -0.1064 -0.1312
  111POPC  H14X14866   3.876   5.617   4.130  0.4675 -0.2541  0.8020
  111POPC  H14Y14867   3.706   5.660   4.180  0.9156 -1.7409  1.0846
  111POPC  C31514868   3.833   5.719   4.319 -0.9164 -0.1312  0.1007
  111POPC  H15X14869   3.750   5.776   4.367 -0.0818  1.1097  0.1055
  111POPC  H15Y14870   3.928   5.774   4.331 -0.2691 -1.2221  0.1287
  111POPC  C31614871   3.850   5.581   4.399  0.5315  0.0152 -0.3723
  111POPC  H16X14872   3.752   5.529   4.400 -0.0709  1.1200 -0.6544
  111POPC  H16Y14873   3.907   5.590   4.494 -0.4681 -2.2795  0.5048
  111POPC  H16Z14874   3.916   5.525   4.331 -1.1534 -1.8450 -0.5493
  112POPC     N14875   6.031   2.327   2.044  0.3824 -0.2359 -0.1849
  112POPC   C1214876   6.124   2.250   2.130 -0.1989 -0.4029 -0.5137
  112POPC  H12A14877   6.073   2.168   2.179  0.1033  1.1910  2.6956
  112POPC  H12B14878   6.157   2.318   2.206 -1.9945  2.5429 -2.1982
  112POPC   C1314879   6.103   2.447   1.992  0.0531 -0.3638  0.3746
  112POPC  H13A14880   6.048   2.495   1.913  0.5746  0.8071  0.7053
  112POPC  H13B14881   6.134   2.510   2.074  0.4809 -0.2915  0.1582
  112POPC  H13C14882   6.191   2.411   1.943  1.5238  0.4990  2.2444
  112POPC   C1414883   5.983   2.247   1.929  1.0224 -0.3519 -0.4143
  112POPC  H14A14884   5.922   2.308   1.864  0.0691 -0.5608  0.2664
  112POPC  H14B14885   6.055   2.206   1.859  0.9798  0.9539 -1.2742
  112POPC  H14C14886   5.917   2.175   1.973 -0.1249  1.6887  1.4332
  112POPC   C1514887   5.913   2.379   2.124  0.1278  0.0721 -0.7780
  112POPC  H15A14888   5.854   2.304   2.174  1.8770 -1.2401 -0.5973
  112POPC  H15B14889   5.839   2.436   2.070  1.9675  1.5871 -1.8428
  112POPC  H15C14890   5.953   2.444   2.200  0.4019  0.1448 -0.9828
  112POPC   C1114891   6.260   2.196   2.075 -0.2834  0.5480 -0.1806
  112POPC  H11A14892   6.336   2.160   2.149  1.0496 -0.2106 -1.8444
  112POPC  H11B14893   6.311   2.282   2.027 -0.5571  0.3380 -0.8589
  112POPC     P14894   6.195   1.956   2.002 -0.1522 -0.0438  0.2046
  112POPC   O1314895   6.315   1.870   2.014  0.6318  0.0158  0.1600
  112POPC   O1414896   6.097   1.915   1.895  1.0388 -0.1181 -0.8800
  112POPC   O1214897   6.247   2.104   1.970 -0.1370  0.2640  0.1199
  112POPC   O1114898   6.131   1.981   2.143 -0.1870  0.1266  0.2822
  112POPC    C114899   6.060   1.880   2.209  0.1328 -0.7135 -0.7726
  112POPC    HA14900   6.117   1.786   2.219  1.4076  0.0574 -0.6243
  112POPC    HB14901   5.965   1.864   2.153 -0.2152  0.0021 -0.4078
  112POPC    C214902   6.039   1.919   2.364  0.2394  0.0360 -0.1672
  112POPC    HS14903   5.969   1.845   2.407 -1.9076  2.6089  1.0395
  112POPC   O2114904   5.980   2.047   2.362  0.0412 -0.3774 -0.3663
  112POPC   C2114905   5.910   2.084   2.468  0.4075  0.4186  0.2550
  112POPC   O2214906   5.884   2.013   2.563 -0.0045 -0.0283 -0.2761
  112POPC   C2214907   5.867   2.225   2.450 -0.4278 -0.5480  0.2929
  112POPC   H2R14908   5.822   2.231   2.348  1.0175 -2.4890 -0.5115
  112POPC   H2S14909   5.955   2.292   2.457 -0.7004 -0.3311  2.4041
  112POPC    C314910   6.173   1.916   2.445 -0.8770  0.1769  0.8440
  112POPC    HX14911   6.236   1.985   2.386  1.6248 -3.1773 -0.7679
  112POPC    HY14912   6.214   1.814   2.431  1.7469  0.9494  2.2568
  112POPC   O3114913   6.168   1.960   2.576 -0.1601  0.2626  0.3812
  112POPC   C3114914   6.128   1.867   2.660  0.0967  0.2374  0.1074
  112POPC   O3214915   6.086   1.758   2.626 -0.2745  0.2155  0.3272
  112POPC   C3214916   6.147   1.906   2.811  0.3892 -0.2824  0.1476
  112POPC   H2X14917   6.256   1.904   2.833  0.7346  0.0390 -1.4452
  112POPC   H2Y14918   6.083   1.843   2.876  0.6301 -2.2736 -1.4328
  112POPC   C2314919   5.760   2.281   2.554  0.2502  0.6032  0.3643
  112POPC   H3R14920   5.696   2.193   2.579  1.0838 -0.2559 -0.4383
  112POPC   H3S14921   5.694   2.350   2.498 -0.7476  0.6913  1.6133
  112POPC   C2414922   5.819   2.334   2.680 -0.2088 -0.5706 -0.2141
  112POPC   H4R14923   5.903   2.400   2.650 -0.0787 -0.2654  0.7886
  112POPC   H4S14924   5.860   2.249   2.738 -0.8810 -0.1333  0.9213
  112POPC   C2514925   5.724   2.412   2.764 -0.1883  0.1074  0.3078
  112POPC   H5R14926   5.679   2.348   2.843  0.7054  1.0362  1.6103
  112POPC   H5S14927   5.655   2.468   2.697  1.4951  1.9450  0.0321
  112POPC   C2614928   5.800   2.504   2.868 -0.1905 -0.2304  0.2331
  112POPC   H6R14929   5.861   2.577   2.810  1.7744  0.1441  2.5586
  112POPC   H6S14930   5.856   2.441   2.941 -0.0113  1.7040  1.8554
  112POPC   C2714931   5.706   2.593   2.951 -0.5692  0.0239  0.3245
  112POPC   H7R14932   5.628   2.638   2.887 -0.7421 -1.2475 -0.3774
  112POPC   H7S14933   5.764   2.678   2.994  0.7557 -0.8544  0.3218
  112POPC   C2814934   5.629   2.514   3.058 -0.2014 -0.5231  0.7179
  112POPC   H8R14935   5.692   2.483   3.144  0.7519 -0.4003  0.0913
  112POPC   H8S14936   5.578   2.424   3.017  0.6865 -1.9381  2.5757
  112POPC   C2914937   5.507   2.598   3.105 -0.7774 -0.7439  0.7404
  112POPC   H9114938   5.450   2.647   3.025 -0.4542 -3.6835 -1.4226
  112POPC  C21014939   5.464   2.611   3.226 -0.3334  0.2078  0.6185
  112POPC  H10114940   5.373   2.670   3.243  1.5992  3.2370  1.0985
  112POPC  C21114941   5.515   2.539   3.350 -0.4459 -0.0653  0.6074
  112POPC  H11R14942   5.534   2.613   3.430 -1.2071  1.3782 -0.4963
  112POPC  H11S14943   5.612   2.488   3.331 -0.2026  1.0625 -1.5590
  112POPC  C21214944   5.407   2.450   3.420 -0.4545 -0.2334  0.1688
  112POPC  H12R14945   5.405   2.355   3.363  0.2937  0.0740 -0.3866
  112POPC  H12S14946   5.310   2.504   3.411  0.0929  0.8689  0.6755
  112POPC  C21314947   5.450   2.433   3.572  0.9950  1.1233  0.2104
  112POPC  H13R14948   5.503   2.526   3.603  1.7020  1.0588 -0.7314
  112POPC  H13S14949   5.517   2.345   3.582 -1.5538 -0.8436  0.9611
  112POPC  C21414950   5.324   2.416   3.656 -0.8252 -0.4533 -0.3546
  112POPC  H14R14951   5.265   2.336   3.606  1.2415 -2.6997  0.5967
  112POPC  H14S14952   5.264   2.509   3.648  2.2279  1.6975 -0.1835
  112POPC  C21514953   5.360   2.387   3.804  0.3108 -0.0778  0.6602
  112POPC  H15R14954   5.424   2.469   3.842  0.2228 -0.1524  0.9779
  112POPC  H15S14955   5.418   2.293   3.789  0.0179 -0.0699 -0.5686
  112POPC  C21614956   5.229   2.351   3.878 -0.1943  0.3779  0.2895
  112POPC  H16R14957   5.190   2.257   3.832  0.5570 -0.3795  1.1645
  112POPC  H16S14958   5.158   2.435   3.859  0.4039  0.6258 -0.9036
  112POPC  C21714959   5.251   2.319   4.024 -0.2527 -0.4658 -0.2768
  112POPC  H17R14960   5.289   2.401   4.089  1.1274 -1.4574  0.2408
  112POPC  H17S14961   5.338   2.249   4.025  2.6798  2.8643 -1.4498
  112POPC  C21814962   5.123   2.255   4.088 -0.1471  1.5537  0.2733
  112POPC  H18R14963   5.035   2.319   4.068 -1.1958 -0.7131 -3.4976
  112POPC  H18S14964   5.143   2.253   4.197  1.2136  1.7885  0.0474
  112POPC  H18T14965   5.099   2.156   4.042 -0.3308  1.2978  0.9173
  112POPC   C3314966   6.091   2.049   2.843  0.8548  0.4574  0.5802
  112POPC   H3X14967   5.987   2.055   2.806  1.0312 -1.3675 -0.3282
  112POPC   H3Y14968   6.154   2.126   2.793  0.2747  0.3722 -0.2866
  112POPC   C3414969   6.098   2.075   2.994 -0.0439  0.6753  0.5276
  112POPC   H4X14970   6.196   2.051   3.041 -0.7007  0.0111  1.5905
  112POPC   H4Y14971   6.023   2.009   3.044  1.2671 -0.5984  0.8792
  112POPC   C3514972   6.072   2.223   3.033 -0.2879 -0.3641  0.5885
  112POPC   H5X14973   5.967   2.250   3.007  0.8555  0.6064 -3.8720
  112POPC   H5Y14974   6.142   2.276   2.966 -0.8763 -2.5252 -1.8994
  112POPC   C3614975   6.106   2.258   3.181  0.3984 -0.6423  0.3145
  112POPC   H6X14976   6.093   2.368   3.191 -1.5226 -0.8752  0.8853
  112POPC   H6Y14977   6.213   2.240   3.202  0.7253 -1.5918 -1.8794
  112POPC   C3714978   6.013   2.195   3.289  0.4412  0.3349  1.9442
  112POPC   H7X14979   6.035   2.086   3.294  1.3945  0.3934 -0.0821
  112POPC   H7Y14980   5.905   2.194   3.262  0.0760 -1.3396  3.3033
  112POPC   C3814981   6.017   2.268   3.430 -0.5695 -0.3069  0.4070
  112POPC   H8X14982   5.920   2.231   3.468 -0.2802 -0.5760  0.8896
  112POPC   H8Y14983   6.015   2.379   3.422 -2.6505 -0.3012  0.4058
  112POPC   C3914984   6.136   2.249   3.513 -0.4947  0.4840  0.2734
  112POPC   H9X14985   6.218   2.312   3.472 -1.3613  1.4374 -0.0473
  112POPC   H9Y14986   6.174   2.145   3.508  1.2383  0.8086  3.7230
  112POPC  C31014987   6.109   2.292   3.661 -0.9909  0.3038 -0.3019
  112POPC  H10X14988   6.016   2.240   3.694  0.5311 -2.1964  0.3125
  112POPC  H10Y14989   6.085   2.400   3.664 -3.9453 -0.2656 -0.0837
  112POPC  C31114990   6.220   2.255   3.758  0.1313  0.3707 -0.3251
  112POPC  H11X14991   6.319   2.292   3.723  0.4751 -1.3920 -1.3232
  112POPC  H11Y14992   6.234   2.146   3.774 -0.5008  0.3419  0.0712
  112POPC  C31214993   6.198   2.317   3.897  0.1479  0.4628 -0.3912
  112POPC  H12X14994   6.102   2.287   3.945 -1.2510  0.4062 -2.9966
  112POPC  H12Y14995   6.197   2.428   3.892 -0.7544  0.4503 -0.8146
  112POPC  C31314996   6.305   2.267   3.992  0.3994  0.2830  0.3685
  112POPC  H13X14997   6.397   2.284   3.931  0.3583 -0.5524  0.0535
  112POPC  H13Y14998   6.293   2.158   4.007  0.0528  0.4553  1.3612
  112POPC  C31414999   6.309   2.351   4.122 -0.0651  0.2368 -0.0058
  112POPC  H14X15000   6.339   2.456   4.102 -2.2146  0.7989 -0.5426
  112POPC  H14Y15001   6.381   2.302   4.190  0.9567 -1.9055 -2.4423
  112POPC  C31515002   6.167   2.343   4.187 -0.0424 -0.5222  0.4488
  112POPC  H15X15003   6.133   2.237   4.188  2.2355 -1.3277  2.8413
  112POPC  H15Y15004   6.090   2.400   4.130 -1.3625 -0.1807  2.4638
  112POPC  C31615005   6.158   2.390   4.329 -0.2290  0.0904 -0.3631
  112POPC  H16X15006   6.201   2.305   4.385 -1.6124  0.1436  0.8559
  112POPC  H16Y15007   6.051   2.401   4.358 -0.2353 -1.2446  0.2033
  112POPC  H16Z15008   6.201   2.492   4.341 -2.0437  0.7855  0.6941
  113POPC     N15009   5.612   6.155   2.209  0.1203 -0.9456 -0.2372
  113POPC   C1215010   5.537   6.205   2.330  0.1701 -0.4477 -0.2652
  113POPC  H12A15011   5.556   6.311   2.334 -0.1300 -0.3231 -1.7532
  113POPC  H12B15012   5.582   6.160   2.417 -0.6687 -0.2044  0.3182
  113POPC   C1315013   5.586   6.009   2.204  0.0896 -0.1983  0.1106
  113POPC  H13A15014   5.480   5.991   2.216  0.2339  0.6471  4.1610
  113POPC  H13B15015   5.615   5.983   2.103  2.2985 -1.2102  0.9431
  113POPC  H13C15016   5.650   5.945   2.263 -0.3824 -1.5412 -0.7943
  113POPC   C1415017   5.565   6.221   2.083  0.2600 -0.3402  0.9807
  113POPC  H14A15018   5.608   6.320   2.073  0.2763 -0.5750 -2.1815
  113POPC  H14B15019   5.584   6.174   1.988  0.6643  1.3720  0.1750
  113POPC  H14C15020   5.458   6.238   2.085  0.3230  0.3502 -0.2632
  113POPC   C1515021   5.760   6.181   2.212 -0.2976  0.3971  0.9358
  113POPC  H15A15022   5.773   6.288   2.218  1.2596  0.5046 -2.3840
  113POPC  H15B15023   5.812   6.145   2.125  0.5677  1.8562  0.8142
  113POPC  H15C15024   5.806   6.150   2.305 -0.6682  3.0660  2.1002
  113POPC   C1115025   5.383   6.197   2.336  0.5037  0.4178 -0.5838
  113POPC  H11A15026   5.343   6.243   2.429  1.7374  1.5232 -0.5710
  113POPC  H11B15027   5.353   6.090   2.347 -0.1113  0.7636  1.6698
  113POPC     P15028   5.169   6.262   2.187 -0.1571  0.1115  0.3556
  113POPC   O1315029   5.155   6.138   2.117  0.8055  0.0838 -0.2613
  113POPC   O1415030   5.125   6.385   2.114  0.2116 -0.2531  0.0714
  113POPC   O1215031   5.325   6.267   2.226 -0.1682 -0.4125 -0.3094
  113POPC   O1115032   5.101   6.248   2.328 -1.5734  0.3971 -0.3653
  113POPC    C115033   5.021   6.350   2.384  0.0067 -0.0706 -0.7655
  113POPC    HA15034   4.928   6.314   2.432  0.4640  1.6881  1.6438
  113POPC    HB15035   4.989   6.433   2.317 -2.6161  0.9824  1.6122
  113POPC    C215036   5.095   6.429   2.498 -0.2940 -0.6548  0.1215
  113POPC    HS15037   5.151   6.510   2.447 -0.4502 -0.5469  0.1198
  113POPC   O2115038   5.183   6.342   2.562  0.2788 -0.0215  1.0915
  113POPC   C2115039   5.261   6.406   2.649 -0.2203  0.3416 -1.0879
  113POPC   O2215040   5.265   6.527   2.657 -0.1701 -0.1715 -0.2145
  113POPC   C2215041   5.353   6.309   2.713  0.2597 -0.2532 -0.0343
  113POPC   H2R15042   5.457   6.320   2.675  0.0189 -1.6204 -1.2018
  113POPC   H2S15043   5.325   6.205   2.683 -2.4068  1.0020 -2.3129
  113POPC    C315044   4.994   6.488   2.599 -0.5234  0.2226 -0.5832
  113POPC    HX15045   4.914   6.532   2.536 -0.8231 -1.0914 -1.1503
  113POPC    HY15046   5.043   6.568   2.660 -0.6806  1.3722 -1.9252
  113POPC   O3115047   4.942   6.385   2.685  0.5141 -0.4377  0.1436
  113POPC   C3115048   4.813   6.369   2.687  0.7109  0.0540 -0.7478
  113POPC   O3215049   4.731   6.445   2.636 -0.1381  0.6582  0.5091
  113POPC   C3215050   4.786   6.263   2.790  0.3401  0.7630 -0.5704
  113POPC   H2X15051   4.855   6.178   2.775 -1.0009 -1.5893  4.3398
  113POPC   H2Y15052   4.685   6.217   2.785  1.6084 -2.1825 -0.7335
  113POPC   C2315053   5.369   6.329   2.863 -0.3842  0.0563 -0.8329
  113POPC   H3R15054   5.269   6.343   2.910 -0.0466  1.2702 -0.4453
  113POPC   H3S15055   5.418   6.423   2.893 -1.2120 -0.0914  1.1098
  113POPC   C2415056   5.422   6.195   2.923 -0.1539 -0.5805 -0.0029
  113POPC   H4R15057   5.523   6.170   2.884  0.0076  1.6256 -1.1507
  113POPC   H4S15058   5.343   6.120   2.905 -1.2591  0.3168  0.9699
  113POPC   C2515059   5.444   6.199   3.074  0.1594  0.1848  0.3225
  113POPC   H5R15060   5.501   6.290   3.102 -0.4403  1.2741 -1.7848
  113POPC   H5S15061   5.500   6.110   3.111 -0.9666  0.2338  2.2887
  113POPC   C2615062   5.309   6.199   3.157 -0.5251 -0.1775 -0.3232
  113POPC   H6R15063   5.250   6.108   3.132 -2.2260  0.5817  0.7566
  113POPC   H6S15064   5.249   6.287   3.126  0.0156  1.2788  2.4682
  113POPC   C2715065   5.325   6.204   3.309  0.2486 -0.4679  0.0517
  113POPC   H7R15066   5.324   6.309   3.346 -0.7166  0.6175 -2.8103
  113POPC   H7S15067   5.419   6.155   3.344  1.3666  1.5587  0.0474
  113POPC   C2815068   5.210   6.128   3.376  1.4249  0.0303  0.2289
  113POPC   H8R15069   5.196   6.031   3.325  1.4294  0.1954 -0.0902
  113POPC   H8S15070   5.110   6.174   3.360  1.7642  1.2657  1.4055
  113POPC   C2915071   5.230   6.117   3.527  0.2083 -0.3862 -0.7591
  113POPC   H9115072   5.303   6.192   3.558  0.6383 -0.8651 -0.5950
  113POPC  C21015073   5.188   6.024   3.609 -0.0228 -0.6506 -0.6372
  113POPC  H10115074   5.216   6.029   3.715 -2.5253 -0.8715  0.1131
  113POPC  C21115075   5.085   5.917   3.590 -0.4736  0.0150  0.1062
  113POPC  H11R15076   5.086   5.838   3.668 -0.5843  0.5570  0.6588
  113POPC  H11S15077   5.099   5.867   3.492  0.2076 -0.9347  0.6797
  113POPC  C21215078   4.950   5.985   3.604  0.9961 -0.3877 -0.3261
  113POPC  H12R15079   4.874   5.909   3.576  0.1224 -0.6535  2.4115
  113POPC  H12S15080   4.936   6.080   3.548 -0.2364 -1.0894 -1.2577
  113POPC  C21315081   4.910   6.005   3.755  0.0933 -0.3809  0.5755
  113POPC  H13R15082   4.993   6.042   3.817  0.3516 -1.7668  1.0927
  113POPC  H13S15083   4.886   5.906   3.801 -0.9326  0.0253  0.9479
  113POPC  C21415084   4.775   6.081   3.774 -0.6301 -0.4093 -0.5257
  113POPC  H14R15085   4.691   6.038   3.715 -0.7068 -0.4772 -0.3684
  113POPC  H14S15086   4.774   6.182   3.729 -2.1373 -1.0377 -2.0432
  113POPC  C21515087   4.729   6.083   3.921  0.6006  0.4216 -0.3411
  113POPC  H15R15088   4.656   6.167   3.914 -0.9635 -0.8731 -0.2447
  113POPC  H15S15089   4.802   6.119   3.996 -2.7062  0.4646  3.1715
  113POPC  C21615090   4.654   5.964   3.973 -0.7342  0.1215 -0.0566
  113POPC  H16R15091   4.730   5.884   3.969  0.0770  0.9312 -1.4808
  113POPC  H16S15092   4.570   5.931   3.909 -1.7009  0.9365  0.7542
  113POPC  C21715093   4.594   5.983   4.114 -0.6926  0.1103  0.3088
  113POPC  H17R15094   4.551   5.885   4.144 -0.7370 -1.6394 -4.5360
  113POPC  H17S15095   4.510   6.054   4.098  0.1662  1.2739  0.8651
  113POPC  C21815096   4.693   6.029   4.228  0.2588 -0.0251 -0.0270
  113POPC  H18R15097   4.623   6.033   4.315 -0.5999  1.3929 -0.7419
  113POPC  H18S15098   4.737   6.129   4.207  0.0922 -0.0934 -0.7221
  113POPC  H18T15099   4.770   5.950   4.237  0.3056 -0.7012 -4.2681
  113POPC   C3315100   4.799   6.316   2.933 -0.4090 -0.1800 -0.2570
  113POPC   H3X15101   4.722   6.395   2.942 -2.3530 -1.7194 -2.0308
  113POPC   H3Y15102   4.901   6.357   2.951 -0.7461  1.1064 -1.1467
  113POPC   C3415103   4.768   6.200   3.030  0.4797  0.5695 -0.5100
  113POPC   H4X15104   4.827   6.115   2.989  0.0724  0.2679 -0.4764
  113POPC   H4Y15105   4.658   6.184   3.024  0.4066  0.9903 -0.2731
  113POPC   C3515106   4.822   6.221   3.171  0.7194  0.9629 -0.3591
  113POPC   H5X15107   4.931   6.242   3.164  0.9025 -0.1036 -0.7932
  113POPC   H5Y15108   4.814   6.124   3.224 -0.0143  0.4041 -1.4558
  113POPC   C3615109   4.758   6.339   3.243  0.0452 -0.1960 -0.2478
  113POPC   H6X15110   4.647   6.331   3.251  0.0093  1.3145  1.6865
  113POPC   H6Y15111   4.783   6.427   3.180  0.2352  2.4598  3.1686
  113POPC   C3715112   4.803   6.344   3.393  0.2821  0.1349  0.0775
  113POPC   H7X15113   4.828   6.241   3.427  0.9569  0.8232  1.8170
  113POPC   H7Y15114   4.722   6.389   3.455  0.5608  1.8930 -0.7741
  113POPC   C3815115   4.918   6.440   3.414 -0.2142  0.0287  0.3420
  113POPC   H8X15116   4.881   6.544   3.413  1.3988  0.6413  1.1808
  113POPC   H8Y15117   5.008   6.427   3.349 -0.0583 -1.3500  0.7968
  113POPC   C3915118   4.962   6.424   3.558 -0.3762 -0.4798  0.3394
  113POPC   H9X15119   5.008   6.323   3.571  0.0563 -0.6984 -2.3759
  113POPC   H9Y15120   4.881   6.426   3.634 -0.7947 -0.4763 -0.1013
  113POPC  C31015121   5.069   6.529   3.590  0.0517  0.0901 -0.4829
  113POPC  H10X15122   5.048   6.636   3.565  1.8112  1.5834  3.5773
  113POPC  H10Y15123   5.156   6.506   3.526 -0.0427 -2.7124  0.2717
  113POPC  C31115124   5.116   6.521   3.742 -0.0531 -0.2106  0.4129
  113POPC  H11X15125   5.138   6.416   3.772 -3.2011 -1.3185 -0.7468
  113POPC  H11Y15126   5.033   6.561   3.803  0.2363  1.2293 -0.1043
  113POPC  C31215127   5.242   6.610   3.768  0.3446 -0.0576  0.3777
  113POPC  H12X15128   5.228   6.716   3.735  0.2703 -0.2805 -0.3179
  113POPC  H12Y15129   5.340   6.574   3.730  0.5137  0.3480  0.4188
  113POPC  C31315130   5.258   6.635   3.925  0.5048  0.1475  0.0396
  113POPC  H13X15131   5.300   6.541   3.966 -4.1508 -3.4368 -2.4270
  113POPC  H13Y15132   5.159   6.660   3.967  0.7614 -1.1236  1.4737
  113POPC  C31415133   5.360   6.742   3.951 -0.1278 -0.0060  0.0234
  113POPC  H14X15134   5.359   6.834   3.889  1.3046  0.0964  0.1192
  113POPC  H14Y15135   5.460   6.707   3.918 -0.7062 -1.7197 -0.0043
  113POPC  C31515136   5.383   6.780   4.093 -0.1876 -0.3059 -0.4754
  113POPC  H15X15137   5.477   6.838   4.101 -1.0629  1.3225 -1.4552
  113POPC  H15Y15138   5.407   6.686   4.147  1.9502  1.1225  1.2584
  113POPC  C31615139   5.263   6.847   4.162 -0.5911  0.4101  0.4063
  113POPC  H16X15140   5.266   6.867   4.271 -2.0685  0.8243  0.3897
  113POPC  H16Y15141   5.171   6.786   4.155 -0.8709  0.8193  0.4679
  113POPC  H16Z15142   5.237   6.941   4.107 -0.6925  0.1543  0.0124
  114POPC     N15143   5.536   5.003   2.131  0.5092 -0.3120 -0.2038
  114POPC   C1215144   5.478   5.135   2.194 -0.5590  0.1163 -0.2440
  114POPC  H12A15145   5.372   5.149   2.184 -0.3296  3.7753  0.9319
  114POPC  H12B15146   5.511   5.220   2.136 -0.7832  0.8769  0.7202
  114POPC   C1315147   5.507   4.880   2.205  0.3655 -0.3239  0.8234
  114POPC  H13A15148   5.553   4.882   2.303  1.7387 -0.7527  0.1996
  114POPC  H13B15149   5.400   4.868   2.218 -0.3607  2.1006 -1.9509
  114POPC  H13C15150   5.552   4.794   2.159  1.1844  0.1351  0.7620
  114POPC   C1415151   5.477   4.981   1.991  0.0819 -0.4548 -0.7222
  114POPC  H14A15152   5.542   4.927   1.924 -0.2957  0.9575 -2.2741
  114POPC  H14B15153   5.383   4.928   1.994  0.0895 -0.5797 -2.1462
  114POPC  H14C15154   5.459   5.082   1.958  0.4053  0.1428  0.8503
  114POPC   C1515155   5.683   5.001   2.114 -0.6975 -0.2645 -0.3608
  114POPC  H15A15156   5.742   5.015   2.204  0.7549 -0.5852 -1.2399
  114POPC  H15B15157   5.716   5.081   2.051 -0.8418  1.1695  1.2988
  114POPC  H15C15158   5.715   4.905   2.076 -0.9436  0.3912 -2.2997
  114POPC   C1115159   5.505   5.168   2.341  1.1141 -0.2468  0.1345
  114POPC  H11A15160   5.435   5.099   2.395  1.5764 -0.7447  0.1052
  114POPC  H11B15161   5.455   5.266   2.355 -2.8028 -2.1514  0.9986
  114POPC     P15162   5.755   5.251   2.328  0.0101  0.0734 -0.1532
  114POPC   O1315163   5.692   5.350   2.243  0.0551  0.4013  0.0179
  114POPC   O1415164   5.855   5.169   2.258 -0.3021  0.2313 -0.4610
  114POPC   O1215165   5.641   5.153   2.383  0.1018 -0.0995 -0.1476
  114POPC   O1115166   5.810   5.322   2.462 -0.6823  0.3216 -0.7975
  114POPC    C115167   5.702   5.393   2.532  0.7402 -1.1245 -0.7841
  114POPC    HA15168   5.605   5.339   2.526  1.2063 -2.4086  1.7595
  114POPC    HB15169   5.684   5.494   2.491  0.2784 -0.8641  0.0214
  114POPC    C215170   5.744   5.429   2.680 -0.1699  0.0661  0.0898
  114POPC    HS15171   5.842   5.480   2.671  0.1634 -0.6794 -0.6382
  114POPC   O2115172   5.769   5.312   2.759 -0.3890  0.5284 -0.2110
  114POPC   C2115173   5.823   5.326   2.877  0.2323 -0.1483 -0.2544
  114POPC   O2215174   5.889   5.421   2.920 -0.5396 -0.3385 -0.2288
  114POPC   C2215175   5.808   5.187   2.961 -0.1749  0.4188 -0.0004
  114POPC   H2R15176   5.726   5.129   2.913 -0.0170  1.3345 -1.4531
  114POPC   H2S15177   5.773   5.212   3.063 -1.3377 -0.3790 -0.1832
  114POPC    C315178   5.641   5.517   2.750 -0.3738 -0.8007 -0.1216
  114POPC    HX15179   5.629   5.607   2.686 -1.5604 -0.7577  0.1389
  114POPC    HY15180   5.669   5.551   2.852 -2.6958  0.7616  0.0589
  114POPC   O3115181   5.510   5.459   2.747  0.4691  0.2287  0.5124
  114POPC   C3115182   5.476   5.385   2.856  0.0411 -0.3314  0.1949
  114POPC   O3215183   5.540   5.385   2.962  0.0271 -0.3795 -0.1186
  114POPC   C3215184   5.354   5.303   2.818  0.8170 -0.2248 -0.3966
  114POPC   H2X15185   5.408   5.218   2.770  0.6853  0.5360 -1.9529
  114POPC   H2Y15186   5.298   5.362   2.743  1.7322  3.1491  1.3967
  114POPC   C2315187   5.940   5.122   2.964  0.3945  0.4037  0.0317
  114POPC   H3R15188   6.017   5.186   3.013  0.7799 -1.3479  1.8613
  114POPC   H3S15189   5.975   5.085   2.866  2.4432 -0.8240  1.1501
  114POPC   C2415190   5.956   4.994   3.057 -0.3859  0.2221  0.1195
  114POPC   H4R15191   5.875   4.919   3.048 -1.8068  1.7587 -0.5254
  114POPC   H4S15192   5.929   5.027   3.160 -1.5152 -0.3175  0.0114
  114POPC   C2515193   6.101   4.938   3.048 -0.4510 -0.5744  0.3296
  114POPC   H5R15194   6.161   5.031   3.058  1.3661 -1.7140  0.2434
  114POPC   H5S15195   6.127   4.901   2.947 -0.0353  2.2167 -0.6871
  114POPC   C2615196   6.130   4.850   3.167 -0.1194  0.6175 -0.5731
  114POPC   H6R15197   6.043   4.782   3.181  0.6528 -0.2045  0.4700
  114POPC   H6S15198   6.140   4.917   3.255 -1.3845  1.7921 -1.2773
  114POPC   C2715199   6.258   4.774   3.136  0.0841  0.0820  0.0925
  114POPC   H7R15200   6.307   4.853   3.075 -0.1040 -0.7523 -1.1726
  114POPC   H7S15201   6.243   4.681   3.078  0.3011  0.7155 -0.9973
  114POPC   C2815202   6.334   4.739   3.263  0.1716 -0.2830 -0.4879
  114POPC   H8R15203   6.288   4.643   3.293 -1.7876  0.6196 -0.4601
  114POPC   H8S15204   6.305   4.808   3.345 -2.4373 -1.6580 -0.1361
  114POPC   C2915205   6.477   4.722   3.249  0.4313  0.2058  0.2565
  114POPC   H9115206   6.517   4.807   3.192  0.0668 -0.1700 -0.5812
  114POPC  C21015207   6.551   4.614   3.285  0.1919  0.2422  0.1458
  114POPC  H10115208   6.660   4.626   3.284  0.1708  0.4943 -1.0823
  114POPC  C21115209   6.490   4.492   3.359 -1.1556  0.5891 -0.4482
  114POPC  H11R15210   6.484   4.404   3.293 -0.7309 -0.0284  0.3120
  114POPC  H11S15211   6.383   4.500   3.387 -0.7426 -1.0517  1.8673
  114POPC  C21215212   6.566   4.471   3.492 -0.1091 -0.2906  0.9302
  114POPC  H12R15213   6.673   4.460   3.467 -0.7431 -1.0537 -1.7825
  114POPC  H12S15214   6.543   4.376   3.545  1.5323 -0.0160  2.2239
  114POPC  C21315215   6.567   4.588   3.593 -0.1940 -0.6265 -0.1515
  114POPC  H13R15216   6.461   4.623   3.587 -0.0873 -0.3643 -0.5383
  114POPC  H13S15217   6.643   4.662   3.560 -0.0090 -1.6410 -2.1703
  114POPC  C21415218   6.604   4.542   3.733  0.3401 -0.1526  0.3132
  114POPC  H14R15219   6.541   4.456   3.764  0.3523 -0.9291 -1.6965
  114POPC  H14S15220   6.594   4.622   3.810  3.9447  0.2818  0.5042
  114POPC  C21515221   6.751   4.502   3.747 -0.2194 -0.5079  0.0766
  114POPC  H15R15222   6.777   4.423   3.673  1.2928  2.1962 -2.4563
  114POPC  H15S15223   6.766   4.454   3.846  0.6308 -1.1284 -0.3439
  114POPC  C21615224   6.840   4.620   3.722 -0.5583  0.0715 -0.0207
  114POPC  H16R15225   6.781   4.706   3.762 -2.3450 -2.1771  2.6183
  114POPC  H16S15226   6.861   4.646   3.616  0.2814 -0.9735 -0.1270
  114POPC  C21715227   6.977   4.617   3.797 -0.6916  0.0233 -0.7315
  114POPC  H17R15228   6.960   4.576   3.899  0.0489  0.5169 -0.4029
  114POPC  H17S15229   6.998   4.721   3.827  1.4055 -0.2100 -1.2414
  114POPC  C21815230   7.095   4.548   3.723  0.5749 -0.4147  0.5776
  114POPC  H18R15231   7.197   4.582   3.753 -0.2083  1.8641  0.8601
  114POPC  H18S15232   7.082   4.577   3.616 -0.6642  1.0047  1.0791
  114POPC  H18T15233   7.097   4.437   3.728  0.3759 -0.4765 -0.4367
  114POPC   C3315234   5.276   5.245   2.942 -0.4147  0.4827  0.0148
  114POPC   H3X15235   5.332   5.162   2.991 -0.7830  0.8381  1.0524
  114POPC   H3Y15236   5.187   5.185   2.911 -1.6628  2.4611 -0.3521
  114POPC   C3415237   5.231   5.350   3.039  0.3873 -0.0134 -0.5217
  114POPC   H4X15238   5.185   5.433   2.982 -3.8325 -1.4093  0.4482
  114POPC   H4Y15239   5.313   5.394   3.099 -0.1113  0.4504 -0.1685
  114POPC   C3515240   5.125   5.284   3.130 -0.0989 -0.8266 -0.0151
  114POPC   H5X15241   5.060   5.213   3.074 -0.8156  0.2577 -0.5796
  114POPC   H5Y15242   5.056   5.360   3.172 -2.5148 -2.5671 -0.5917
  114POPC   C3615243   5.180   5.213   3.251 -0.5070 -0.4364 -0.6607
  114POPC   H6X15244   5.250   5.282   3.303 -0.4541  0.7993 -2.3064
  114POPC   H6Y15245   5.243   5.127   3.219 -1.5383 -0.2113 -3.6423
  114POPC   C3715246   5.074   5.164   3.352  0.0405  0.3632 -0.5269
  114POPC   H7X15247   4.988   5.120   3.298  1.4285 -2.0577 -0.9199
  114POPC   H7Y15248   5.019   5.250   3.395 -0.8036 -0.5115  0.1666
  114POPC   C3815249   5.135   5.074   3.465  0.3012 -0.0212 -0.0859
  114POPC   H8X15250   5.215   5.130   3.517 -0.7798 -0.9130  2.7264
  114POPC   H8Y15251   5.188   4.988   3.420  0.5408  1.2496 -2.3937
  114POPC   C3915252   5.027   5.016   3.563 -0.4658 -0.3629 -0.2830
  114POPC   H9X15253   4.961   4.947   3.507 -0.9069 -0.9281  0.8900
  114POPC   H9Y15254   4.962   5.095   3.606  0.5693  0.4394 -0.1330
  114POPC  C31015255   5.108   4.942   3.674 -0.4672 -0.2942  0.1844
  114POPC  H10X15256   5.171   4.995   3.749  1.0156 -3.7421  1.5683
  114POPC  H10Y15257   5.183   4.881   3.619  1.1035 -0.6098  2.5191
  114POPC  C31115258   5.010   4.847   3.746  0.3585 -0.6865 -0.0546
  114POPC  H11X15259   4.927   4.824   3.677  2.1353 -0.9117 -2.2300
  114POPC  H11Y15260   4.967   4.900   3.833 -0.9801 -0.5584 -0.7767
  114POPC  C31215261   5.073   4.727   3.816  0.4891 -0.7966 -0.3554
  114POPC  H12X15262   5.135   4.757   3.904  1.2582 -0.3074 -1.0504
  114POPC  H12Y15263   5.138   4.688   3.735 -0.7715  2.8824 -3.4425
  114POPC  C31315264   4.961   4.634   3.869  0.2690  0.4411  0.4358
  114POPC  H13X15265   4.883   4.632   3.790 -0.5604  1.1182  1.2122
  114POPC  H13Y15266   4.919   4.678   3.962  1.6367  2.6354  0.0832
  114POPC  C31415267   5.008   4.489   3.906 -0.3189 -0.0726 -0.6231
  114POPC  H14X15268   4.939   4.441   3.978 -0.7377  0.3348 -0.7458
  114POPC  H14Y15269   5.104   4.506   3.958 -1.0370 -0.7795  1.0117
  114POPC  C31515270   5.037   4.399   3.785  0.0145  0.0140 -0.8067
  114POPC  H15X15271   5.057   4.296   3.822 -1.7042 -0.3699 -0.8643
  114POPC  H15Y15272   5.137   4.433   3.748  1.2684 -1.3459  1.1278
  114POPC  C31615273   4.945   4.394   3.667  0.0897 -0.3275  0.4765
  114POPC  H16X15274   4.939   4.498   3.628 -0.0272 -0.6768 -0.4711
  114POPC  H16Y15275   4.841   4.369   3.698 -0.3103  0.1935 -0.3938
  114POPC  H16Z15276   4.990   4.312   3.607  0.9453  0.4904 -0.0330
  115POPC     N15277   0.156   6.253   2.303 -0.1385 -0.2774 -0.3800
  115POPC   C1215278   0.195   6.153   2.414  0.7002  0.3504 -0.1920
  115POPC  H12A15279   0.113   6.083   2.402  2.4212 -1.7001 -0.6230
  115POPC  H12B15280   0.189   6.206   2.507 -1.5105  2.5714 -1.4672
  115POPC   C1315281   0.038   6.333   2.342  0.2852  0.1138  0.0432
  115POPC  H13A15282   0.040   6.416   2.273  3.1442 -1.8370 -2.4768
  115POPC  H13B15283  -0.057   6.281   2.345 -0.3486  1.2369  0.1138
  115POPC  H13C15284   0.060   6.371   2.440 -1.1813 -2.1189  1.3152
  115POPC   C1415285   0.277   6.341   2.280 -0.2442  0.6302  0.5469
  115POPC  H14A15286   0.363   6.288   2.241 -0.2991  1.0927 -0.2223
  115POPC  H14B15287   0.246   6.417   2.209 -1.5447 -0.6927 -0.3548
  115POPC  H14C15288   0.297   6.404   2.365 -0.8371  3.0100 -0.9746
  115POPC   C1515289   0.130   6.184   2.168  0.0845 -0.2290  0.0172
  115POPC  H15A15290   0.204   6.110   2.145  0.9403  0.8052 -0.6359
  115POPC  H15B15291   0.116   6.254   2.087 -1.0258 -1.7412 -1.1535
  115POPC  H15C15292   0.035   6.134   2.178 -0.1645  0.1596 -0.3791
  115POPC   C1115293   0.330   6.076   2.402  0.1081 -0.4848 -0.5322
  115POPC  H11A15294   0.351   6.024   2.498 -1.5174  0.9843  0.6702
  115POPC  H11B15295   0.407   6.152   2.377  0.3009 -1.2305 -2.3609
  115POPC     P15296   0.251   5.849   2.292 -0.0831 -0.4750  0.0062
  115POPC   O1315297   0.323   5.747   2.215 -1.0277  0.2262 -0.3971
  115POPC   O1415298   0.119   5.882   2.234  0.3033 -0.4125 -0.3901
  115POPC   O1215299   0.333   5.979   2.300 -0.1141  0.0789 -0.0832
  115POPC   O1115300   0.238   5.798   2.441 -0.6463 -0.4010 -0.1667
  115POPC    C115301   0.350   5.737   2.501  0.3228  0.1897  0.1377
  115POPC    HA15302   0.431   5.810   2.521  0.6499 -0.7764  2.8397
  115POPC    HB15303   0.394   5.653   2.442  1.7286  0.3959  0.8557
  115POPC    C215304   0.332   5.692   2.656 -0.1323  0.0941  0.3854
  115POPC    HS15305   0.273   5.599   2.664 -0.2619  0.0232 -1.1552
  115POPC   O2115306   0.287   5.799   2.740  0.5026  0.6184 -0.1165
  115POPC   C2115307   0.153   5.812   2.731 -0.0062  0.1895 -0.2049
  115POPC   O2215308   0.078   5.732   2.670  0.1417 -0.7632  0.0921
  115POPC   C2215309   0.112   5.930   2.810  0.5912 -0.3245  0.1391
  115POPC   H2R15310   0.019   5.963   2.759  0.3308 -0.3169  0.6111
  115POPC   H2S15311   0.186   6.013   2.807 -0.8547  1.1046  1.5341
  115POPC    C315312   0.471   5.656   2.715 -0.2118  0.4930  0.2260
  115POPC    HX15313   0.531   5.745   2.741  1.5203 -0.8557  1.0656
  115POPC    HY15314   0.526   5.597   2.638  0.7316 -2.5839  3.0049
  115POPC   O3115315   0.460   5.564   2.831 -0.4308  0.4689  0.0810
  115POPC   C3115316   0.498   5.611   2.947 -0.4206  0.0446 -0.0798
  115POPC   O3215317   0.528   5.727   2.974 -0.0548  0.0763 -0.1442
  115POPC   C3215318   0.498   5.491   3.049  0.2233 -0.4149 -0.4282
  115POPC   H2X15319   0.506   5.395   2.995 -0.2815 -0.9948  0.5050
  115POPC   H2Y15320   0.403   5.498   3.107  0.8964  0.3937  0.6092
  115POPC   C2315321   0.067   5.886   2.955 -0.4687 -0.2461 -0.6017
  115POPC   H3R15322  -0.013   5.809   2.944  1.9718 -3.0267 -0.1859
  115POPC   H3S15323   0.035   5.973   3.016 -0.2386 -1.7469  1.8138
  115POPC   C2415324   0.185   5.822   3.039 -0.2067 -0.0691 -0.2018
  115POPC   H4R15325   0.284   5.868   3.020 -1.1860  1.2863 -2.3685
  115POPC   H4S15326   0.196   5.712   3.025 -0.1535  0.1935 -2.6656
  115POPC   C2515327   0.168   5.840   3.190 -0.0633 -0.0014  0.2212
  115POPC   H5R15328   0.071   5.797   3.220 -1.1184  2.6379  0.8792
  115POPC   H5S15329   0.160   5.946   3.224 -1.7656  0.3713 -1.2142
  115POPC   C2615330   0.283   5.770   3.275 -0.8608 -0.2155 -0.9165
  115POPC   H6R15331   0.378   5.804   3.230  0.5686 -2.4332  0.2105
  115POPC   H6S15332   0.272   5.661   3.254 -0.0614 -0.5454  0.2669
  115POPC   C2715333   0.271   5.802   3.417 -0.1770  0.3012  0.2822
  115POPC   H7R15334   0.167   5.832   3.444  0.0272  1.5795 -0.2639
  115POPC   H7S15335   0.329   5.893   3.442  1.4867 -0.6505  0.0526
  115POPC   C2815336   0.312   5.689   3.512  0.7380  0.2195  0.2351
  115POPC   H8R15337   0.333   5.723   3.616  0.5050 -0.1945  0.4197
  115POPC   H8S15338   0.410   5.646   3.483 -0.5077 -0.6443 -3.2122
  115POPC   C2915339   0.212   5.574   3.496 -0.2760 -0.0334  0.4758
  115POPC   H9115340   0.163   5.562   3.399 -1.5984 -0.8400  1.2185
  115POPC  C21015341   0.176   5.489   3.594  0.0943  0.1950  0.3216
  115POPC  H10115342   0.096   5.418   3.565  1.2024 -0.4054 -1.4139
  115POPC  C21115343   0.207   5.494   3.741 -0.3303 -0.3944 -0.0574
  115POPC  H11R15344   0.268   5.583   3.770 -0.7856 -0.8210  2.4697
  115POPC  H11S15345   0.273   5.413   3.779  0.3737 -0.7636 -1.9574
  115POPC  C21215346   0.068   5.504   3.815 -0.7238  0.1195 -0.0771
  115POPC  H12R15347   0.001   5.426   3.771 -1.9072  0.6865  0.6630
  115POPC  H12S15348   0.023   5.604   3.800  0.7226  0.7373 -0.4462
  115POPC  C21315349   0.098   5.479   3.965 -0.0469 -0.5841 -0.5753
  115POPC  H13R15350   0.021   5.537   4.021  1.5024  0.6646  0.3327
  115POPC  H13S15351   0.200   5.521   3.979 -0.2571 -0.2508 -0.0119
  115POPC  C21415352   0.097   5.338   4.019  0.2200  0.0157 -0.1076
  115POPC  H14R15353   0.164   5.273   3.959 -0.4717 -0.2448 -0.6099
  115POPC  H14S15354  -0.003   5.289   4.012  1.2022 -1.8835 -1.5594
  115POPC  C21515355   0.131   5.335   4.166  0.1245 -0.6128 -0.4135
  115POPC  H15R15356   0.041   5.376   4.216  0.5902 -1.3777  1.1361
  115POPC  H15S15357   0.223   5.391   4.193  0.3047 -1.1105  0.0167
  115POPC  C21615358   0.150   5.187   4.219  0.7661 -0.6901  0.0607
  115POPC  H16R15359   0.233   5.142   4.161  1.9691  2.8651 -1.2739
  115POPC  H16S15360   0.058   5.133   4.190  1.7902 -2.4990  0.0604
  115POPC  C21715361   0.176   5.167   4.360  0.2487 -0.1055 -0.6791
  115POPC  H17R15362   0.098   5.224   4.416  0.8282  1.3549 -1.3108
  115POPC  H17S15363   0.274   5.213   4.385  1.1666 -1.3534 -1.8119
  115POPC  C21815364   0.157   5.022   4.404 -0.4428  0.2136 -0.0431
  115POPC  H18R15365   0.229   4.972   4.337 -1.4775 -0.1359 -0.9232
  115POPC  H18S15366   0.055   4.986   4.380 -0.3742  0.4679 -0.7226
  115POPC  H18T15367   0.187   5.008   4.510  0.9202  0.1189 -0.4317
  115POPC   C3315368   0.623   5.499   3.146 -0.2196 -0.3391  0.1488
  115POPC   H3X15369   0.615   5.582   3.220  1.8449  0.5281 -0.5440
  115POPC   H3Y15370   0.723   5.516   3.100  1.2548 -2.4600  2.3187
  115POPC   C3415371   0.633   5.371   3.233  0.4506 -0.0907 -0.8747
  115POPC   H4X15372   0.741   5.365   3.260  0.1554  1.0363  0.7119
  115POPC   H4Y15373   0.604   5.292   3.161 -1.7717 -0.8392  0.7298
  115POPC   C3515374   0.550   5.386   3.359  0.0538  0.5356 -0.2915
  115POPC   H5X15375   0.445   5.419   3.343 -0.5223  0.2276  2.2936
  115POPC   H5Y15376   0.606   5.461   3.418 -0.7675  1.8765 -1.1757
  115POPC   C3615377   0.550   5.249   3.437  0.6291 -0.4152  0.6327
  115POPC   H6X15378   0.525   5.264   3.545 -2.1787  0.1257 -0.0239
  115POPC   H6Y15379   0.648   5.198   3.422  0.1280 -0.6736 -2.1938
  115POPC   C3715380   0.443   5.142   3.388  0.5619  0.1993 -0.1662
  115POPC   H7X15381   0.471   5.042   3.428 -0.7896  1.0566  3.2056
  115POPC   H7Y15382   0.445   5.130   3.277  0.2548  1.5732 -0.3370
  115POPC   C3815383   0.307   5.183   3.437 -0.1523 -0.4162  0.0149
  115POPC   H8X15384   0.298   5.289   3.405  1.0964 -0.0798  0.7273
  115POPC   H8Y15385   0.301   5.169   3.547 -0.0133  1.3459  0.2862
  115POPC   C3915386   0.195   5.108   3.375  0.5493  0.4273 -0.4545
  115POPC   H9X15387   0.095   5.146   3.407 -0.9991 -1.2176 -2.9503
  115POPC   H9Y15388   0.193   5.001   3.406 -1.7514  0.0603 -1.5983
  115POPC  C31015389   0.186   5.109   3.219 -0.3889  0.0977 -0.3054
  115POPC  H10X15390   0.092   5.059   3.185  0.2759 -1.9027  0.6783
  115POPC  H10Y15391   0.260   5.042   3.169  1.6770  0.6153  1.8729
  115POPC  C31115392   0.196   5.248   3.157 -0.3054  0.2550  0.2767
  115POPC  H11X15393   0.197   5.241   3.046  0.6601  2.6039  0.0811
  115POPC  H11Y15394   0.298   5.291   3.175 -0.9051  1.0629  1.9637
  115POPC  C31215395   0.080   5.345   3.190 -0.8559  0.0090  0.3833
  115POPC  H12X15396   0.109   5.449   3.166 -0.2145  0.0378  1.2337
  115POPC  H12Y15397   0.066   5.342   3.300  0.7503 -0.8606  0.5854
  115POPC  C31315398  -0.050   5.312   3.109 -0.2357 -0.0387 -0.7661
  115POPC  H13X15399  -0.098   5.222   3.153 -0.1045  0.5576  0.6464
  115POPC  H13Y15400  -0.022   5.297   3.003  2.4620 -1.3840  0.0466
  115POPC  C31415401  -0.153   5.429   3.129  0.3554  1.1583  0.3853
  115POPC  H14X15402  -0.185   5.431   3.235 -1.4470 -2.5632  0.0762
  115POPC  H14Y15403  -0.245   5.399   3.073 -0.1028 -0.6462  2.0265
  115POPC  C31515404  -0.103   5.569   3.108 -0.1344  0.5328 -0.7977
  115POPC  H15X15405  -0.046   5.572   3.013 -0.0977 -1.9377 -0.9079
  115POPC  H15Y15406  -0.032   5.597   3.189  0.4411 -0.8170 -0.8110
  115POPC  C31615407  -0.220   5.663   3.103 -0.0720 -0.3471  0.1229
  115POPC  H16X15408  -0.258   5.673   3.207  0.4859 -0.7672  0.3752
  115POPC  H16Y15409  -0.295   5.615   3.037  1.5383  1.3933 -3.1872
  115POPC  H16Z15410  -0.195   5.765   3.069 -1.5047 -0.1671 -0.4592
  116POPC     N15411   1.653   6.097   2.387 -0.5433  0.8149 -0.0085
  116POPC   C1215412   1.557   6.141   2.495  0.0304 -0.4924  1.0322
  116POPC  H12A15413   1.534   6.245   2.474  1.6055  0.1173  2.1469
  116POPC  H12B15414   1.603   6.141   2.592  0.2801 -1.6295  0.9299
  116POPC   C1315415   1.704   5.958   2.427  0.3083 -0.0398 -0.1647
  116POPC  H13A15416   1.770   5.921   2.351 -0.4062 -1.1071 -0.2849
  116POPC  H13B15417   1.760   5.960   2.519  0.4167 -1.8116 -0.1601
  116POPC  H13C15418   1.621   5.889   2.437  0.0717  0.5006  2.3011
  116POPC   C1415419   1.591   6.084   2.251  0.6079 -0.0476 -0.8359
  116POPC  H14A15420   1.592   6.176   2.196 -1.2412 -1.3730 -3.2930
  116POPC  H14B15421   1.641   6.010   2.190  1.5627 -1.2937  1.3143
  116POPC  H14C15422   1.490   6.051   2.274  1.1453  0.3867  2.7452
  116POPC   C1515423   1.763   6.191   2.379  0.0989 -0.6801  0.4602
  116POPC  H15A15424   1.822   6.171   2.467 -1.6310 -2.0416  1.3796
  116POPC  H15B15425   1.728   6.292   2.362  1.1483 -0.7233 -2.5357
  116POPC  H15C15426   1.818   6.173   2.289 -2.1975 -1.3588 -0.8965
  116POPC   C1115427   1.429   6.054   2.519 -0.8840  0.7699  0.0428
  116POPC  H11A15428   1.374   6.101   2.604 -0.4906  2.6301 -0.6758
  116POPC  H11B15429   1.458   5.954   2.557 -0.8123  2.1241  4.1186
  116POPC     P15430   1.230   6.153   2.395 -0.1089  0.1534 -0.1191
  116POPC   O1315431   1.168   6.148   2.265  0.2576 -0.2884  0.0335
  116POPC   O1415432   1.292   6.283   2.442  0.5850 -0.2002  0.0342
  116POPC   O1215433   1.342   6.043   2.408 -0.1210 -0.0319 -0.3450
  116POPC   O1115434   1.120   6.112   2.503  0.6143 -0.3686  0.0786
  116POPC    C115435   1.081   5.980   2.543  0.0642  0.8163 -0.0032
  116POPC    HA15436   1.168   5.911   2.544  0.6225  1.5130  0.7516
  116POPC    HB15437   1.003   5.950   2.470  1.3820  0.1319 -1.1810
  116POPC    C215438   1.040   5.980   2.699 -0.2029  0.3295  0.6452
  116POPC    HS15439   1.016   5.874   2.722 -1.6866  0.6254  0.6006
  116POPC   O2115440   0.926   6.059   2.729 -0.2843 -0.0315 -0.1553
  116POPC   C2115441   0.808   6.025   2.675  0.1405  0.0942 -0.5327
  116POPC   O2215442   0.785   5.941   2.594 -0.0777  0.4606 -0.1004
  116POPC   C2215443   0.703   6.119   2.728  0.1954 -0.6464 -0.0525
  116POPC   H2R15444   0.695   6.200   2.653 -0.9305 -0.8134 -0.1285
  116POPC   H2S15445   0.747   6.169   2.817  0.2789  1.0700 -1.0004
  116POPC    C315446   1.166   6.025   2.790  0.3807  0.2973  0.3544
  116POPC    HX15447   1.163   6.135   2.777  0.1996  0.2381 -0.1481
  116POPC    HY15448   1.258   5.994   2.736  0.2695  2.8521 -1.4519
  116POPC   O3115449   1.160   5.980   2.928 -0.1718  0.5525  0.0682
  116POPC   C3115450   1.070   6.030   3.015 -0.2218  0.0288 -0.9815
  116POPC   O3215451   0.984   6.108   2.991 -0.9084  0.0236  0.3077
  116POPC   C3215452   1.094   5.971   3.155 -0.1731 -0.5468  0.0054
  116POPC   H2X15453   1.033   6.030   3.226  1.1866 -0.1737  0.9089
  116POPC   H2Y15454   1.204   5.970   3.173  0.2779 -1.3641 -2.4384
  116POPC   C2315455   0.569   6.049   2.760 -0.2405  0.0413  0.0289
  116POPC   H3R15456   0.579   5.965   2.831 -2.1151 -0.4069 -0.1695
  116POPC   H3S15457   0.529   5.999   2.669 -1.5021  0.2998  0.4187
  116POPC   C2415458   0.469   6.146   2.812 -0.0108 -0.1144  0.8058
  116POPC   H4R15459   0.374   6.148   2.753  1.1261  0.2350 -1.1005
  116POPC   H4S15460   0.512   6.248   2.809  0.3519 -0.2276  1.9295
  116POPC   C2515461   0.423   6.132   2.956  0.4886 -0.4775 -0.1274
  116POPC   H5R15462   0.512   6.124   3.022  0.4880  2.1431  0.3201
  116POPC   H5S15463   0.364   6.040   2.974  0.6705 -0.3445  1.2706
  116POPC   C2615464   0.333   6.254   3.003  0.4096 -0.1440 -0.4038
  116POPC   H6R15465   0.254   6.266   2.925 -1.1395  1.1418  1.2550
  116POPC   H6S15466   0.395   6.347   3.008 -0.5558  0.4533  1.7281
  116POPC   C2715467   0.255   6.248   3.138  0.4476  0.1577  0.2239
  116POPC   H7R15468   0.185   6.164   3.117  1.7705 -0.4520 -2.1483
  116POPC   H7S15469   0.187   6.336   3.138  0.5486  0.2358  0.7330
  116POPC   C2815470   0.340   6.241   3.266  0.3678  0.6165  0.1506
  116POPC   H8R15471   0.413   6.325   3.260  0.1995  0.7896  0.5005
  116POPC   H8S15472   0.403   6.150   3.264 -0.9315 -0.2930 -1.9773
  116POPC   C2915473   0.264   6.245   3.395 -0.2514  0.6314  0.3893
  116POPC   H9115474   0.229   6.148   3.435 -0.3993  0.8525  0.7973
  116POPC  C21015475   0.241   6.347   3.484  0.2606 -0.6891  0.8474
  116POPC  H10115476   0.180   6.335   3.575  3.1960  1.8731  3.4045
  116POPC  C21115477   0.290   6.486   3.465  0.3127  0.3373 -0.6807
  116POPC  H11R15478   0.197   6.547   3.470 -0.6625 -0.9974 -1.6792
  116POPC  H11S15479   0.349   6.489   3.371  0.8389 -0.8387 -0.4039
  116POPC  C21215480   0.376   6.539   3.580 -0.2438 -0.3783 -0.0665
  116POPC  H12R15481   0.473   6.486   3.574  0.0995  0.2389 -0.0125
  116POPC  H12S15482   0.336   6.527   3.683 -2.1138  1.6516 -0.4661
  116POPC  C21315483   0.391   6.690   3.573 -0.0587 -0.2455  0.6695
  116POPC  H13R15484   0.478   6.717   3.637  0.3887 -2.2513  0.9903
  116POPC  H13S15485   0.305   6.739   3.624 -1.9605 -1.5524 -1.1343
  116POPC  C21415486   0.417   6.745   3.432  0.8889 -0.3273 -0.1852
  116POPC  H14R15487   0.325   6.737   3.370 -0.0758 -1.8778  1.3754
  116POPC  H14S15488   0.496   6.686   3.380  0.9680  1.2060 -1.8798
  116POPC  C21515489   0.454   6.900   3.448 -0.5574  0.1520  0.0767
  116POPC  H15R15490   0.555   6.899   3.492 -0.7644 -1.1795  0.5741
  116POPC  H15S15491   0.384   6.954   3.516  1.3021  0.4007  1.8722
  116POPC  C21615492   0.450   6.984   3.317 -0.3651  0.6417 -0.2013
  116POPC  H16R15493   0.524   6.944   3.245 -1.5665 -3.6334  0.6678
  116POPC  H16S15494   0.493   7.083   3.343 -0.5964 -0.0757  3.3974
  116POPC  C21715495   0.313   7.005   3.254  0.2199  0.2758 -0.5726
  116POPC  H17R15496   0.266   7.049   3.345  2.1166  0.3208  0.4375
  116POPC  H17S15497   0.257   6.910   3.247 -0.0340  0.3072  0.7325
  116POPC  C21815498   0.299   7.085   3.128  0.2702 -0.4778  0.4716
  116POPC  H18R15499   0.369   7.043   3.053 -0.7830  0.5675 -1.1869
  116POPC  H18S15500   0.329   7.192   3.135  0.6240 -0.6760  2.5555
  116POPC  H18T15501   0.203   7.080   3.072  0.2277 -0.1593  0.5111
  116POPC   C3315502   1.033   5.835   3.172 -0.4081  0.0600  0.5046
  116POPC   H3X15503   1.091   5.758   3.117 -1.2408  0.2773 -0.6941
  116POPC   H3Y15504   0.937   5.831   3.117  0.3202  0.5502 -0.8348
  116POPC   C3415505   1.024   5.776   3.319  0.4467  0.4501  0.0257
  116POPC   H4X15506   0.969   5.851   3.381  1.0950  1.8409 -1.0262
  116POPC   H4Y15507   1.125   5.747   3.354 -0.3831  0.0070  2.2322
  116POPC   C3515508   0.930   5.649   3.322  0.2864 -0.0371  0.4090
  116POPC   H5X15509   0.949   5.570   3.246  1.7500 -2.5496  3.1617
  116POPC   H5Y15510   0.827   5.678   3.293  0.8543  0.5441 -1.1337
  116POPC   C3615511   0.938   5.566   3.452  0.9583 -0.0622 -0.2615
  116POPC   H6X15512   1.045   5.545   3.475  1.4837  2.3822 -0.1984
  116POPC   H6Y15513   0.890   5.468   3.432  2.5889 -1.1111  0.7432
  116POPC   C3715514   0.870   5.641   3.568 -0.0040 -0.0866 -0.3164
  116POPC   H7X15515   0.770   5.675   3.532 -0.4036 -1.3279 -0.4246
  116POPC   H7Y15516   0.923   5.735   3.593  2.6843 -1.1914 -1.4385
  116POPC   C3815517   0.829   5.547   3.687  0.5158  0.1291  0.9253
  116POPC   H8X15518   0.907   5.502   3.753  1.2954 -0.4566 -0.3368
  116POPC   H8Y15519   0.777   5.464   3.635  0.3649 -0.9628  2.7400
  116POPC   C3915520   0.720   5.616   3.771 -0.3971  0.7140  0.4609
  116POPC   H9X15521   0.640   5.638   3.697 -0.7018 -1.1142  0.2019
  116POPC   H9Y15522   0.749   5.714   3.814  1.8479  0.3393 -0.1043
  116POPC  C31015523   0.666   5.524   3.881 -0.1241 -0.0045  0.4331
  116POPC  H10X15524   0.745   5.506   3.957  0.0910 -0.5948  0.0738
  116POPC  H10Y15525   0.633   5.425   3.844  1.6516 -0.9537  1.2996
  116POPC  C31115526   0.545   5.579   3.958  0.2971  0.3114  0.4970
  116POPC  H11X15527   0.471   5.610   3.881  2.7679  1.4318 -1.5629
  116POPC  H11Y15528   0.572   5.667   4.020  1.2627  0.0420  0.4690
  116POPC  C31215529   0.482   5.475   4.061 -0.0966 -0.4453  0.3286
  116POPC  H12X15530   0.421   5.392   4.019  0.2010 -1.7817  2.4286
  116POPC  H12Y15531   0.412   5.533   4.125 -1.1541  0.4976 -1.5926
  116POPC  C31315532   0.576   5.395   4.147  0.5156 -0.1472 -0.1309
  116POPC  H13X15533   0.633   5.461   4.216 -1.7980  0.8764  0.9247
  116POPC  H13Y15534   0.645   5.332   4.087  1.2243  0.3844  0.1071
  116POPC  C31415535   0.501   5.284   4.232  0.2227 -0.7234 -0.2421
  116POPC  H14X15536   0.434   5.235   4.158 -1.5338  1.8524 -0.4888
  116POPC  H14Y15537   0.451   5.341   4.313  1.9820  0.0591  0.3520
  116POPC  C31515538   0.607   5.182   4.278  0.1150  0.1535  0.4880
  116POPC  H15X15539   0.692   5.226   4.335 -0.3916  2.7336 -0.6099
  116POPC  H15Y15540   0.655   5.132   4.192 -0.5375 -2.1709  1.3908
  116POPC  C31615541   0.541   5.071   4.364 -0.6576 -0.6639  0.4091
  116POPC  H16X15542   0.455   5.019   4.315 -0.7525  1.3516 -1.7364
  116POPC  H16Y15543   0.501   5.100   4.463  1.0313 -1.5843  1.3989
  116POPC  H16Z15544   0.614   4.987   4.374 -3.4154 -3.1298  1.4963
  117POPC     N15545   6.210   0.820   2.333  0.3285  0.0735 -0.1727
  117POPC   C1215546   6.337   0.874   2.268  0.1280 -0.4077 -0.0178
  117POPC  H12A15547   6.295   0.953   2.208  1.8659 -0.1046 -0.9024
  117POPC  H12B15548   6.381   0.801   2.202 -0.4849 -0.4182 -0.4251
  117POPC   C1315549   6.111   0.768   2.229  0.0790 -0.6478  0.4489
  117POPC  H13A15550   6.025   0.727   2.281  1.4083 -3.5076  0.5505
  117POPC  H13B15551   6.072   0.843   2.161  0.7266 -0.6639  0.0533
  117POPC  H13C15552   6.159   0.688   2.176 -0.5630  0.1356 -1.4234
  117POPC   C1415553   6.240   0.704   2.424  0.5054 -0.0490 -0.7352
  117POPC  H14A15554   6.296   0.632   2.366 -1.2560 -1.2643 -1.0051
  117POPC  H14B15555   6.297   0.733   2.510 -2.5396  0.3842  1.2947
  117POPC  H14C15556   6.148   0.654   2.451  1.1733 -0.4195  0.9324
  117POPC   C1515557   6.141   0.924   2.421 -0.7930  0.4409 -1.1753
  117POPC  H15A15558   6.221   0.963   2.483  0.6192 -3.6285 -0.0923
  117POPC  H15B15559   6.063   0.885   2.484  0.6027 -1.0482 -0.3023
  117POPC  H15C15560   6.107   1.008   2.361  1.9815  1.9057 -0.8825
  117POPC   C1115561   6.455   0.933   2.357 -0.0459 -0.0198 -0.6190
  117POPC  H11A15562   6.487   0.871   2.443  1.1675  2.0823  0.5523
  117POPC  H11B15563   6.416   1.030   2.395 -1.9709 -0.6743 -0.8318
  117POPC     P15564   6.606   1.070   2.194 -0.3922  0.3564  0.1895
  117POPC   O1315565   6.479   1.128   2.141 -0.5113 -0.0672 -0.1387
  117POPC   O1415566   6.702   1.026   2.087 -0.4576 -0.0125  0.2207
  117POPC   O1215567   6.575   0.943   2.280  0.3520  0.4368 -0.0818
  117POPC   O1115568   6.664   1.176   2.295  0.2862  0.0364 -0.3383
  117POPC    C115569   6.748   1.140   2.412  0.4790 -0.8227 -0.5812
  117POPC    HA15570   6.847   1.184   2.387  0.8182 -1.5468 -0.5295
  117POPC    HB15571   6.757   1.030   2.423 -1.6950 -0.8041  2.9640
  117POPC    C215572   6.684   1.199   2.545 -0.4769 -0.4830 -0.2733
  117POPC    HS15573   6.594   1.140   2.571  0.8872 -1.4164  2.7974
  117POPC   O2115574   6.667   1.345   2.527 -0.4722 -0.3910 -0.0014
  117POPC   C2115575   6.548   1.386   2.497  0.0686 -0.2665  0.2796
  117POPC   O2215576   6.449   1.307   2.487 -0.0757 -0.2765  0.1796
  117POPC   C2215577   6.542   1.534   2.488 -0.0792 -0.2763 -0.1916
  117POPC   H2R15578   6.465   1.555   2.411 -0.4904 -0.8508  0.0512
  117POPC   H2S15579   6.640   1.564   2.447 -0.7335 -0.9090 -2.3809
  117POPC    C315580   6.786   1.173   2.671 -0.0849 -0.1526  0.4843
  117POPC    HX15581   6.885   1.201   2.632 -0.1530 -0.9995 -0.3321
  117POPC    HY15582   6.787   1.062   2.676 -1.2889 -0.2272 -0.4868
  117POPC   O3115583   6.752   1.240   2.793  0.2259 -0.0920  0.4357
  117POPC   C3115584   6.651   1.186   2.852 -0.0239  0.2173 -0.4977
  117POPC   O3215585   6.589   1.085   2.811  0.1534  0.2610  0.2778
  117POPC   C3215586   6.605   1.276   2.968  0.0629 -0.0883  0.2844
  117POPC   H2X15587   6.532   1.350   2.927  0.4099  1.4549  2.2558
  117POPC   H2Y15588   6.694   1.335   2.999 -0.5815 -0.1183  2.3822
  117POPC   C2315589   6.516   1.605   2.629 -0.0795  0.3453  0.5435
  117POPC   H3R15590   6.479   1.709   2.614 -1.4488 -0.4365 -2.0859
  117POPC   H3S15591   6.604   1.620   2.694  0.2402  0.9331 -0.0097
  117POPC   C2415592   6.404   1.554   2.722 -0.3043 -0.6196  1.1643
  117POPC   H4R15593   6.419   1.444   2.733 -1.3727 -1.1560 -1.7006
  117POPC   H4S15594   6.306   1.567   2.670 -0.2370  0.0944  1.2079
  117POPC   C2515595   6.401   1.617   2.860 -0.4800 -0.3504 -0.5520
  117POPC   H5R15596   6.390   1.727   2.855 -0.3751 -0.1758  1.7758
  117POPC   H5S15597   6.502   1.599   2.903  0.5444  1.4736 -2.0265
  117POPC   C2615598   6.286   1.571   2.951 -0.2988  0.2579 -0.2480
  117POPC   H6R15599   6.294   1.460   2.957  1.6497  0.1196 -3.0330
  117POPC   H6S15600   6.188   1.608   2.914  0.1600  1.2342 -0.5274
  117POPC   C2715601   6.302   1.621   3.100  0.2751  0.0720  0.3860
  117POPC   H7R15602   6.303   1.732   3.096 -0.9410  0.0995  0.5859
  117POPC   H7S15603   6.394   1.588   3.153  0.5078 -0.0703 -0.1020
  117POPC   C2815604   6.186   1.579   3.185  0.2297 -0.3713  0.4543
  117POPC   H8R15605   6.203   1.629   3.283  2.5257 -1.5216  0.7111
  117POPC   H8S15606   6.194   1.469   3.196 -0.4344 -0.7306 -2.0343
  117POPC   C2915607   6.048   1.614   3.129 -0.4539  0.7518  0.0664
  117POPC   H9115608   6.021   1.544   3.049  0.7378 -1.2059  1.3062
  117POPC  C21015609   5.961   1.705   3.169  0.2845 -0.2413 -1.2821
  117POPC  H10115610   5.863   1.710   3.119 -1.4007  2.2446  1.8845
  117POPC  C21115611   5.970   1.780   3.303  0.3091 -0.0474  0.5440
  117POPC  H11R15612   5.921   1.879   3.290  0.1382  0.1097  2.2056
  117POPC  H11S15613   6.074   1.798   3.337  1.4165 -0.0068 -2.5565
  117POPC  C21215614   5.895   1.713   3.417  0.1439 -0.4898 -0.2834
  117POPC  H12R15615   5.934   1.610   3.435  0.5768 -0.0405  1.6123
  117POPC  H12S15616   5.786   1.703   3.400 -0.0320 -0.4119  0.7213
  117POPC  C21315617   5.911   1.788   3.553 -0.9407  0.5534  0.0090
  117POPC  H13R15618   5.845   1.752   3.635  0.6169 -0.8160  0.7099
  117POPC  H13S15619   5.902   1.898   3.544  2.5681  0.8814 -1.1785
  117POPC  C21415620   6.047   1.760   3.617 -0.5309  0.2042 -0.0582
  117POPC  H14R15621   6.100   1.685   3.555  0.1063  0.9065 -0.3897
  117POPC  H14S15622   6.054   1.722   3.721  1.2682  0.5118 -0.0279
  117POPC  C21515623   6.138   1.882   3.636 -0.3488  0.3467 -0.0296
  117POPC  H15R15624   6.081   1.948   3.704 -2.0114  0.3944 -1.4034
  117POPC  H15S15625   6.145   1.928   3.535 -0.7724  2.6090  0.9032
  117POPC  C21615626   6.274   1.847   3.691 -0.9897 -0.4637  0.0753
  117POPC  H16R15627   6.333   1.940   3.702 -2.3526  0.5335 -0.7941
  117POPC  H16S15628   6.324   1.791   3.609 -0.2340  0.2631  0.0270
  117POPC  C21715629   6.269   1.765   3.824  0.4893 -0.4460 -0.3401
  117POPC  H17R15630   6.246   1.657   3.811 -0.7868 -0.1327 -0.8035
  117POPC  H17S15631   6.183   1.813   3.875 -0.8636 -2.8485 -0.2014
  117POPC  C21815632   6.389   1.790   3.918  0.0997 -0.3167 -0.1128
  117POPC  H18R15633   6.451   1.698   3.910 -0.2748 -0.5867  0.0733
  117POPC  H18S15634   6.359   1.792   4.025  3.7793  1.4915  1.0409
  117POPC  H18T15635   6.448   1.880   3.891  1.1278 -0.4716  1.4798
  117POPC   C3315636   6.534   1.199   3.080  0.5911 -0.2830 -0.3478
  117POPC   H3X15637   6.471   1.117   3.040 -1.4199  0.5484  0.9284
  117POPC   H3Y15638   6.457   1.266   3.125 -0.6158 -0.1186 -2.5387
  117POPC   C3415639   6.630   1.165   3.187  0.0907  0.6116 -0.4104
  117POPC   H4X15640   6.673   1.262   3.222 -2.2802  2.2929 -1.8610
  117POPC   H4Y15641   6.722   1.122   3.142  0.9160  2.1128 -0.2547
  117POPC   C3515642   6.570   1.091   3.307 -0.0388  0.0900  0.5029
  117POPC   H5X15643   6.537   0.989   3.277 -0.2108  0.0128  0.9525
  117POPC   H5Y15644   6.484   1.143   3.356  0.7943 -0.1210  2.2235
  117POPC   C3615645   6.667   1.072   3.423 -0.5209 -0.0322  0.2030
  117POPC   H6X15646   6.757   1.024   3.379 -0.7222  0.7501 -1.1164
  117POPC   H6Y15647   6.623   1.010   3.504  2.1781 -1.1466  0.9353
  117POPC   C3715648   6.725   1.199   3.487  0.0394  0.2259  0.5241
  117POPC   H7X15649   6.642   1.240   3.547  0.6792  0.8193  1.0199
  117POPC   H7Y15650   6.748   1.272   3.406  0.4521 -1.3686 -0.8600
  117POPC   C3815651   6.841   1.163   3.583  0.2462 -0.4433  0.0591
  117POPC   H8X15652   6.901   1.256   3.596 -0.6093  0.0842  0.3150
  117POPC   H8Y15653   6.906   1.090   3.529 -0.5335 -0.5748 -0.7268
  117POPC   C3915654   6.779   1.112   3.717  0.0318 -0.0926  0.1956
  117POPC   H9X15655   6.743   1.007   3.710  1.1244 -0.5919  1.6851
  117POPC   H9Y15656   6.697   1.176   3.756 -0.7312  0.7530 -2.5344
  117POPC  C31015657   6.882   1.121   3.832 -0.3640  0.0505  0.1717
  117POPC  H10X15658   6.844   1.066   3.921  0.4538 -0.0725  0.4569
  117POPC  H10Y15659   6.877   1.229   3.854 -0.7605  0.4813 -1.8453
  117POPC  C31115660   7.018   1.091   3.782  0.1342  0.3837  0.5758
  117POPC  H11X15661   7.042   1.171   3.708  0.2090 -1.0704 -1.0343
  117POPC  H11Y15662   7.012   0.992   3.732 -2.2112  0.9767 -0.4818
  117POPC  C31215663   7.118   1.095   3.896  0.0242 -0.0168 -0.4362
  117POPC  H12X15664   7.221   1.074   3.861  0.6209  2.6118 -0.4359
  117POPC  H12Y15665   7.096   1.016   3.971  0.5752 -1.0882 -1.3638
  117POPC  C31315666   7.146   1.225   3.966 -0.4018 -0.6330 -0.3742
  117POPC  H13X15667   7.217   1.206   4.049 -0.5300 -2.8596 -0.6980
  117POPC  H13Y15668   7.051   1.260   4.012 -1.0456 -0.6413 -1.6292
  117POPC  C31415669   7.195   1.334   3.875 -1.0999 -0.5228  0.5179
  117POPC  H14X15670   7.219   1.421   3.940  0.5057  0.0162 -0.7290
  117POPC  H14Y15671   7.112   1.366   3.810 -1.3016 -0.1473  0.9546
  117POPC  C31515672   7.333   1.317   3.803  0.1697 -0.8459  0.4528
  117POPC  H15X15673   7.322   1.302   3.694  2.1811  4.0087 -0.6610
  117POPC  H15Y15674   7.370   1.218   3.839 -0.7045 -1.6058 -0.6592
  117POPC  C31615675   7.439   1.433   3.816 -0.1150 -0.4078  0.0714
  117POPC  H16X15676   7.403   1.498   3.734 -0.7154  0.5920  1.1030
  117POPC  H16Y15677   7.538   1.391   3.790  0.6808  0.8619  0.9370
  117POPC  H16Z15678   7.427   1.473   3.919  0.7254  0.3937 -0.1336
  118POPC     N15679   5.521   0.499   2.241 -0.2599 -0.3098  0.2881
  118POPC   C1215680   5.467   0.350   2.235  0.3635 -0.8631  0.0410
  118POPC  H12A15681   5.497   0.311   2.139 -0.5054  3.4553 -2.2614
  118POPC  H12B15682   5.359   0.358   2.241  0.5145  1.5377  0.9637
  118POPC   C1315683   5.524   0.550   2.382 -0.2023 -0.7650 -0.5684
  118POPC  H13A15684   5.589   0.486   2.439  1.2209  0.8179 -0.3353
  118POPC  H13B15685   5.572   0.646   2.395 -1.4341 -0.2042 -0.0063
  118POPC  H13C15686   5.427   0.557   2.429 -0.4637 -0.5759 -1.1140
  118POPC   C1415687   5.665   0.508   2.195 -0.0627 -0.2930  0.4440
  118POPC  H14A15688   5.677   0.443   2.109 -0.8927 -0.4744  0.4579
  118POPC  H14B15689   5.688   0.609   2.166 -2.7136 -0.0923 -1.2502
  118POPC  H14C15690   5.729   0.474   2.275  0.5456 -0.9526 -0.3030
  118POPC   C1515691   5.437   0.593   2.161 -0.0274  0.3212  0.3980
  118POPC  H15A15692   5.442   0.694   2.199 -2.9702  0.7315 -0.0883
  118POPC  H15B15693   5.332   0.567   2.157  0.0269  0.1206  0.2876
  118POPC  H15C15694   5.460   0.603   2.056 -1.3874 -1.3878 -0.1116
  118POPC   C1115695   5.509   0.249   2.348 -0.3469  0.5388  0.3712
  118POPC  H11A15696   5.454   0.158   2.314  3.0588 -1.1752 -1.0713
  118POPC  H11B15697   5.475   0.284   2.448  1.0178  0.9459  0.7106
  118POPC     P15698   5.757   0.243   2.448 -0.5528 -0.1774 -0.3856
  118POPC   O1315699   5.868   0.328   2.392  0.2337 -0.0383  0.3040
  118POPC   O1415700   5.809   0.118   2.502  1.3696  0.8383 -0.0986
  118POPC   O1215701   5.651   0.212   2.341 -0.2077  0.3640  0.3723
  118POPC   O1115702   5.677   0.322   2.562  0.4927  0.1857 -0.4697
  118POPC    C115703   5.623   0.264   2.678 -0.3287 -0.1930 -0.5183
  118POPC    HA15704   5.646   0.155   2.679 -3.4967 -0.9606 -0.7228
  118POPC    HB15705   5.512   0.275   2.677 -0.5534 -2.0169 -0.3882
  118POPC    C215706   5.687   0.330   2.803  0.0790  0.3076 -0.0298
  118POPC    HS15707   5.795   0.345   2.783  0.1511  0.5359  0.5210
  118POPC   O2115708   5.666   0.229   2.906  0.4422 -0.3854 -0.1950
  118POPC   C2115709   5.757   0.230   3.003 -0.8316 -0.8891  0.5536
  118POPC   O2215710   5.846   0.309   3.015 -0.6987 -0.2290  0.3237
  118POPC   C2215711   5.725   0.127   3.111 -0.3853 -0.0219  0.1437
  118POPC   H2R15712   5.731   0.026   3.066 -0.1852  0.0227  0.0672
  118POPC   H2S15713   5.620   0.152   3.136 -0.3422  0.2853  0.0234
  118POPC    C315714   5.621   0.469   2.839  0.0994  0.6712  0.3929
  118POPC    HX15715   5.512   0.448   2.850 -0.3723  1.1086 -2.5579
  118POPC    HY15716   5.625   0.534   2.749 -0.8757  1.9978  1.2838
  118POPC   O3115717   5.671   0.533   2.954 -0.0477  0.5095 -0.1761
  118POPC   C3115718   5.776   0.609   2.938  0.6063  0.1597 -0.6523
  118POPC   O3215719   5.831   0.634   2.830 -0.5201  0.2264 -0.2672
  118POPC   C3215720   5.819   0.680   3.069 -0.1652  0.1779 -0.3355
  118POPC   H2X15721   5.817   0.600   3.145  2.0806 -1.5389 -1.9268
  118POPC   H2Y15722   5.746   0.760   3.093  0.2216  0.8617 -1.3558
  118POPC   C2315723   5.816   0.130   3.238  0.3412  0.5025 -0.3080
  118POPC   H3R15724   5.813   0.230   3.284  0.7127  0.3655  0.0173
  118POPC   H3S15725   5.922   0.121   3.205  1.0224  2.3960  1.1941
  118POPC   C2415726   5.773   0.012   3.334 -1.3647  0.4769 -0.0153
  118POPC   H4R15727   5.826  -0.081   3.303 -0.5434  1.1627 -0.7285
  118POPC   H4S15728   5.666  -0.018   3.337 -0.9015 -1.4599  3.4572
  118POPC   C2515729   5.812   0.059   3.476  0.6236  0.7227 -0.6483
  118POPC   H5R15730   5.756   0.152   3.500 -0.0309  0.6521 -1.8183
  118POPC   H5S15731   5.917   0.095   3.476  1.2919 -1.0315  1.3200
  118POPC   C2615732   5.781  -0.034   3.595 -0.6698  0.1805  0.0832
  118POPC   H6R15733   5.782   0.019   3.693 -1.2384 -0.9978  0.7495
  118POPC   H6S15734   5.852  -0.119   3.589 -1.4024 -0.4337 -0.0030
  118POPC   C2715735   5.636  -0.087   3.589 -0.3635  0.1718 -0.0903
  118POPC   H7R15736   5.624  -0.150   3.498 -1.9774  1.2566 -0.6651
  118POPC   H7S15737   5.569   0.002   3.585  0.3368  0.6647 -1.3499
  118POPC   C2815738   5.583  -0.167   3.708 -0.4326  0.1951  0.3984
  118POPC   H8R15739   5.626  -0.269   3.702  0.1023  0.2827  2.1123
  118POPC   H8S15740   5.474  -0.181   3.688 -0.8002  1.0995  1.5885
  118POPC   C2915741   5.581  -0.094   3.841 -0.1126  0.1795 -0.0339
  118POPC   H9115742   5.516  -0.005   3.842 -0.1681  0.1427  1.1987
  118POPC  C21015743   5.629  -0.138   3.962 -0.2167  0.5732  0.2736
  118POPC  H10115744   5.611  -0.077   4.052 -1.3739  1.6161 -0.6396
  118POPC  C21115745   5.696  -0.268   3.996  0.5592 -0.2276 -0.0549
  118POPC  H11R15746   5.806  -0.252   3.998  0.5703 -0.3241  0.2282
  118POPC  H11S15747   5.686  -0.353   3.925 -0.3564 -1.7901  1.8318
  118POPC  C21215748   5.639  -0.311   4.136  0.2651  0.2206 -0.2087
  118POPC  H12R15749   5.529  -0.321   4.120 -0.0476  1.8491  0.6753
  118POPC  H12S15750   5.657  -0.242   4.221  0.3585 -0.4263  0.3090
  118POPC  C21315751   5.680  -0.452   4.188 -0.0566  0.1425  0.3802
  118POPC  H13R15752   5.790  -0.450   4.201  0.5527 -3.6582 -2.4814
  118POPC  H13S15753   5.659  -0.529   4.111  0.1520  0.6134 -0.1517
  118POPC  C21415754   5.619  -0.488   4.324  0.1958 -0.2921 -0.2770
  118POPC  H14R15755   5.511  -0.467   4.304  0.3269  1.7079  0.7577
  118POPC  H14S15756   5.653  -0.413   4.400  1.6555 -0.6871 -0.5121
  118POPC  C21515757   5.649  -0.633   4.361  0.2780  0.1487 -0.0810
  118POPC  H15R15758   5.617  -0.653   4.465 -1.5115 -0.2788 -0.6857
  118POPC  H15S15759   5.756  -0.663   4.353 -0.0788 -1.5672  0.9926
  118POPC  C21615760   5.576  -0.731   4.262 -0.5905 -1.0218 -0.0106
  118POPC  H16R15761   5.625  -0.727   4.162 -0.5035 -4.1493 -0.1644
  118POPC  H16S15762   5.469  -0.702   4.268 -0.0712  0.8160  1.9827
  118POPC  C21715763   5.587  -0.875   4.317  0.1074 -0.2165  0.1349
  118POPC  H17R15764   5.549  -0.878   4.422  2.6344 -0.8013  1.1026
  118POPC  H17S15765   5.690  -0.916   4.327 -0.7548 -2.1992  1.5633
  118POPC  C21815766   5.514  -0.967   4.228 -0.3133  0.0920 -0.0566
  118POPC  H18R15767   5.527  -0.947   4.120 -1.6683 -1.8068 -0.6230
  118POPC  H18S15768   5.403  -0.962   4.234 -0.5014  1.6824 -2.9709
  118POPC  H18T15769   5.556  -1.067   4.253  2.0952  0.9850 -0.2244
  118POPC   C3315770   5.966   0.741   3.064 -0.5723  0.7851  0.4381
  118POPC   H3X15771   5.999   0.774   2.963 -0.2262  0.4626  0.4469
  118POPC   H3Y15772   6.037   0.662   3.096 -1.5565 -0.5604 -0.5968
  118POPC   C3415773   5.993   0.864   3.154 -0.3042 -0.4201  0.2762
  118POPC   H4X15774   5.981   0.831   3.260 -0.7878  0.0115  0.3606
  118POPC   H4Y15775   5.912   0.936   3.129 -0.5874 -0.8583 -0.0899
  118POPC   C3515776   6.129   0.933   3.134  0.0740 -0.1096 -0.1891
  118POPC   H5X15777   6.150   1.017   3.204  1.2430  0.1400 -0.8210
  118POPC   H5Y15778   6.144   0.973   3.031 -0.4931  0.0670 -0.2079
  118POPC   C3615779   6.245   0.833   3.157  0.0040  0.0949  0.3192
  118POPC   H6X15780   6.335   0.896   3.142 -0.3115  0.4610 -0.0508
  118POPC   H6Y15781   6.252   0.746   3.088  0.1499 -1.3682  2.1044
  118POPC   C3715782   6.257   0.775   3.297  0.4448  0.1088  1.2076
  118POPC   H7X15783   6.355   0.724   3.299 -0.1658 -1.0996  0.9163
  118POPC   H7Y15784   6.168   0.716   3.328  0.1437  0.9998  2.1196
  118POPC   C3815785   6.251   0.885   3.408 -0.6271 -0.0498  0.2048
  118POPC   H8X15786   6.159   0.948   3.410 -1.6519 -1.4933 -0.1520
  118POPC   H8Y15787   6.337   0.954   3.393 -1.9297  1.5686 -0.1549
  118POPC   C3915788   6.266   0.811   3.547 -0.3351 -0.7249 -0.3769
  118POPC   H9X15789   6.344   0.733   3.544  1.8276  1.3507 -1.1180
  118POPC   H9Y15790   6.173   0.751   3.552 -1.3811  0.8944  2.5335
  118POPC  C31015791   6.282   0.913   3.664  0.3244  0.9440  0.3811
  118POPC  H10X15792   6.181   0.952   3.689  0.1443  0.2102  0.8498
  118POPC  H10Y15793   6.358   0.987   3.631  1.9237 -0.6152  0.4146
  118POPC  C31115794   6.328   0.842   3.791  0.0315  0.7151  0.9155
  118POPC  H11X15795   6.413   0.771   3.779  0.0758  0.9993 -0.7034
  118POPC  H11Y15796   6.242   0.786   3.832  0.6537  0.9552  2.6094
  118POPC  C31215797   6.368   0.949   3.893 -0.1219 -0.1638 -0.4448
  118POPC  H12X15798   6.297   1.032   3.912  1.9356  1.0841  2.6240
  118POPC  H12Y15799   6.457   1.002   3.852 -0.1194 -1.2003 -1.8654
  118POPC  C31315800   6.396   0.889   4.035 -0.5903 -0.1143 -0.3760
  118POPC  H13X15801   6.455   0.795   4.029 -0.7074 -0.0790 -2.9140
  118POPC  H13Y15802   6.305   0.848   4.084 -0.5232 -2.1394 -1.8118
  118POPC  C31415803   6.468   0.994   4.119  0.2484 -0.2360 -0.4377
  118POPC  H14X15804   6.398   1.080   4.119  1.0726  0.4434  0.3981
  118POPC  H14Y15805   6.558   1.021   4.060 -0.0793  1.6934 -0.1248
  118POPC  C31515806   6.501   0.951   4.261 -0.2614  0.3273 -0.0951
  118POPC  H15X15807   6.403   0.921   4.304  1.4792 -2.9972  1.9952
  118POPC  H15Y15808   6.557   1.028   4.318 -0.6428  0.6200 -0.1170
  118POPC  C31615809   6.599   0.839   4.263  0.2699  0.1251  0.0447
  118POPC  H16X15810   6.609   0.784   4.358  1.2960  1.0427  0.4907
  118POPC  H16Y15811   6.701   0.878   4.244  0.8706 -1.3989  0.0158
  118POPC  H16Z15812   6.567   0.762   4.190 -1.6303  0.8502  0.0599
  119POPC     N15813   6.159   5.604   2.237 -0.1804 -0.6587 -0.2361
  119POPC   C1215814   6.083   5.577   2.373 -0.6137  0.0725 -0.0214
  119POPC  H12A15815   6.113   5.477   2.403  1.3971  0.5806 -0.2038
  119POPC  H12B15816   5.979   5.587   2.346 -1.0900  0.0986  1.7140
  119POPC   C1315817   6.100   5.510   2.138 -0.3977 -0.3321 -0.3247
  119POPC  H13A15818   5.995   5.532   2.124 -0.4589 -0.1704  0.3310
  119POPC  H13B15819   6.156   5.518   2.046 -2.0411  0.2276 -1.3080
  119POPC  H13C15820   6.104   5.406   2.169 -0.6535  0.0294  1.0250
  119POPC   C1415821   6.124   5.749   2.189 -0.2672  0.1691 -0.4861
  119POPC  H14A15822   6.017   5.754   2.184 -0.2330 -0.1197 -1.8365
  119POPC  H14B15823   6.164   5.818   2.262 -0.3685  1.7235 -1.8510
  119POPC  H14C15824   6.161   5.764   2.089 -1.6561 -0.7796 -1.1643
  119POPC   C1515825   6.301   5.573   2.267 -0.1470  0.2969 -0.0805
  119POPC  H15A15826   6.335   5.619   2.358 -0.2922 -2.5634  1.5350
  119POPC  H15B15827   6.367   5.588   2.182  0.1826  0.4373  0.1990
  119POPC  H15C15828   6.303   5.466   2.281  2.0343  0.5521  2.2193
  119POPC   C1115829   6.104   5.661   2.500 -0.2720  0.2628 -0.2365
  119POPC  H11A15830   6.212   5.682   2.515 -0.4217  1.0444 -0.1791
  119POPC  H11B15831   6.061   5.610   2.588 -2.0961  0.1528 -1.1509
  119POPC     P15832   5.894   5.832   2.506 -0.4013 -0.1894  0.4714
  119POPC   O1315833   5.796   5.749   2.422 -0.4981 -0.1785  0.0785
  119POPC   O1415834   5.878   5.978   2.500 -0.2334 -0.5147 -0.2326
  119POPC   O1215835   6.043   5.791   2.482 -0.1971  0.0437  0.3093
  119POPC   O1115836   5.882   5.784   2.653 -0.2267 -0.2639 -0.4569
  119POPC    C115837   5.963   5.829   2.759 -0.1247 -0.2956 -0.0472
  119POPC    HA15838   6.063   5.858   2.720 -0.8570 -0.9580 -2.6354
  119POPC    HB15839   5.974   5.748   2.834 -0.2745  0.6648  1.0492
  119POPC    C215840   5.901   5.943   2.837  0.5486 -0.0598 -0.0486
  119POPC    HS15841   5.870   6.024   2.767 -2.0361 -0.5766  0.4187
  119POPC   O2115842   5.989   5.983   2.936 -0.0422 -0.1873 -0.5560
  119POPC   C2115843   5.979   6.115   2.970  0.3180  0.0573 -0.0642
  119POPC   O2215844   5.906   6.199   2.916 -0.1345 -0.6590 -0.4702
  119POPC   C2215845   6.092   6.143   3.067  0.2299  0.6235  0.6801
  119POPC   H2R15846   6.074   6.243   3.112 -2.0019  0.8669 -0.6133
  119POPC   H2S15847   6.179   6.157   2.999 -1.5279  2.4678 -1.3747
  119POPC    C315848   5.763   5.911   2.897  1.3468  1.0167 -0.0131
  119POPC    HX15849   5.707   5.869   2.811  2.6996 -0.7121 -0.1216
  119POPC    HY15850   5.717   6.009   2.922 -2.5324 -0.8815  1.0916
  119POPC   O3115851   5.770   5.818   3.008 -0.0287  0.2643 -0.2026
  119POPC   C3115852   5.761   5.880   3.119  0.2492  0.1904 -0.0243
  119POPC   O3215853   5.745   5.995   3.145 -0.5043  0.2826 -0.2950
  119POPC   C3215854   5.762   5.774   3.232  0.1487  0.0852  0.3034
  119POPC   H2X15855   5.828   5.693   3.192  0.0986  0.2814 -0.1864
  119POPC   H2Y15856   5.658   5.734   3.235  0.3841 -0.6857 -0.8352
  119POPC   C2315857   6.115   6.037   3.175  0.1864  0.2575  0.5304
  119POPC   H3R15858   6.150   5.941   3.132 -0.5909 -0.1582  0.7975
  119POPC   H3S15859   6.015   6.009   3.215 -0.4795 -1.0787 -1.8669
  119POPC   C2415860   6.202   6.095   3.288 -0.3929  0.3547 -0.9686
  119POPC   H4R15861   6.194   6.205   3.293 -0.6420  0.2873  0.7671
  119POPC   H4S15862   6.310   6.070   3.281 -0.2787 -0.8808  2.8820
  119POPC   C2515863   6.145   6.058   3.428 -0.1297  0.1878 -0.0963
  119POPC   H5R15864   6.135   5.949   3.446 -1.2976  0.6732  2.6373
  119POPC   H5S15865   6.044   6.103   3.428  1.1004  3.2822  1.7078
  119POPC   C2615866   6.215   6.127   3.547 -0.5908  0.8767 -0.0476
  119POPC   H6R15867   6.324   6.105   3.538 -0.4712  1.1066  0.7867
  119POPC   H6S15868   6.179   6.080   3.641  0.6169  1.7604  0.8776
  119POPC   C2715869   6.199   6.278   3.575 -0.5682  0.0921 -0.4844
  119POPC   H7R15870   6.093   6.302   3.553 -0.7103 -0.2341 -0.1793
  119POPC   H7S15871   6.262   6.346   3.514  1.1484  0.3069  1.4158
  119POPC   C2815872   6.226   6.333   3.720 -1.1656 -0.7833  0.0079
  119POPC   H8R15873   6.239   6.441   3.696 -1.2980 -0.8018 -0.1460
  119POPC   H8S15874   6.330   6.306   3.748 -1.3077 -0.4210  0.9289
  119POPC   C2915875   6.129   6.306   3.832 -0.2470  0.2531 -0.7637
  119POPC   H9115876   6.049   6.235   3.807 -1.4889  1.1302  0.5858
  119POPC  C21015877   6.137   6.354   3.959  0.3177 -0.4568 -0.7740
  119POPC  H10115878   6.056   6.324   4.027  0.3181  1.5744  0.1697
  119POPC  C21115879   6.246   6.450   4.017  0.0263  0.2472 -0.2544
  119POPC  H11R15880   6.347   6.422   3.979 -1.0402 -4.6580 -0.1330
  119POPC  H11S15881   6.250   6.443   4.128 -2.7962 -2.1913 -0.1952
  119POPC  C21215882   6.220   6.596   3.978 -0.5812 -0.5153  0.6502
  119POPC  H12R15883   6.124   6.617   4.030 -1.1756  0.2633 -0.7136
  119POPC  H12S15884   6.200   6.615   3.871  2.2378  1.7849  0.3933
  119POPC  C21315885   6.328   6.700   4.023  0.1983  0.0603  0.8454
  119POPC  H13R15886   6.426   6.682   3.974  1.4736  3.2014  2.0240
  119POPC  H13S15887   6.335   6.671   4.131  1.1547 -0.1062  0.7545
  119POPC  C21415888   6.294   6.848   4.007  0.1954 -0.2772 -0.6250
  119POPC  H14R15889   6.291   6.859   3.896 -0.2378 -1.2696 -0.7163
  119POPC  H14S15890   6.371   6.914   4.053 -0.4658 -0.2560  0.4698
  119POPC  C21515891   6.149   6.890   4.045 -0.7841  0.4337 -0.4403
  119POPC  H15R15892   6.084   6.837   3.973  0.5637 -2.4154  0.2746
  119POPC  H15S15893   6.131   6.997   4.024 -2.0750  0.1830 -0.6457
  119POPC  C21615894   6.113   6.864   4.187 -0.0277 -0.6519  0.0937
  119POPC  H16R15895   6.196   6.910   4.245  0.5817 -1.4359 -0.1432
  119POPC  H16S15896   6.113   6.758   4.220  1.1662 -0.8425 -0.4545
  119POPC  C21715897   5.978   6.934   4.225 -0.2273 -0.1743 -0.4413
  119POPC  H17R15898   5.997   7.043   4.215 -0.2835  0.1099  2.0093
  119POPC  H17S15899   5.976   6.907   4.333 -0.6051 -0.9681 -0.6401
  119POPC  C21815900   5.855   6.885   4.157 -0.3358  0.4017 -0.0475
  119POPC  H18R15901   5.760   6.939   4.181 -0.7686  0.0370 -0.9008
  119POPC  H18S15902   5.838   6.778   4.181  0.0785 -0.3327 -2.7502
  119POPC  H18T15903   5.862   6.894   4.047  0.0734  0.6250 -0.0033
  119POPC   C3315904   5.811   5.831   3.366  0.3804 -0.1470 -0.2091
  119POPC   H3X15905   5.762   5.930   3.373 -0.3095 -0.2920 -2.2134
  119POPC   H3Y15906   5.921   5.838   3.364  0.2730  2.6053 -0.2833
  119POPC   C3415907   5.775   5.744   3.489  0.2840  0.1483 -0.1069
  119POPC   H4X15908   5.815   5.640   3.484  1.3199  0.4367  1.5189
  119POPC   H4Y15909   5.665   5.725   3.485  0.3287 -0.0502 -0.4178
  119POPC   C3515910   5.815   5.801   3.625  0.6532  0.1213 -0.1740
  119POPC   H5X15911   5.776   5.904   3.637 -1.4272 -0.7476  1.2624
  119POPC   H5Y15912   5.924   5.812   3.637  0.9158  1.1392 -2.7627
  119POPC   C3615913   5.758   5.718   3.749  0.0382  0.6126  0.3494
  119POPC   H6X15914   5.649   5.701   3.736 -0.0745  1.6573 -0.2380
  119POPC   H6Y15915   5.751   5.777   3.843 -0.7571 -0.7211  1.1601
  119POPC   C3715916   5.828   5.585   3.778 -0.0909  0.4314 -0.3820
  119POPC   H7X15917   5.938   5.601   3.774 -0.3357  2.0289 -1.3468
  119POPC   H7Y15918   5.804   5.507   3.703  1.2772  0.6451 -1.0643
  119POPC   C3815919   5.790   5.535   3.922  1.0313 -0.7685 -0.6771
  119POPC   H8X15920   5.692   5.580   3.950  1.2090 -1.2231  0.7915
  119POPC   H8Y15921   5.869   5.571   3.991  2.1389 -0.7193 -1.9333
  119POPC   C3915922   5.769   5.378   3.931  0.3351  0.6505 -0.9951
  119POPC   H9X15923   5.735   5.352   4.033  0.1383 -1.4164 -1.5548
  119POPC   H9Y15924   5.861   5.316   3.921  0.4537  0.7879 -0.7695
  119POPC  C31015925   5.661   5.320   3.843 -0.7571  0.4576 -0.0346
  119POPC  H10X15926   5.655   5.353   3.737  1.0271 -0.4669 -0.4584
  119POPC  H10Y15927   5.562   5.362   3.871 -0.3061  2.2908 -1.0617
  119POPC  C31115928   5.659   5.160   3.842  0.7231  0.1539  0.1388
  119POPC  H11X15929   5.656   5.128   3.948  2.7518  0.6523  0.4009
  119POPC  H11Y15930   5.763   5.127   3.820 -0.0621 -3.2691  1.0221
  119POPC  C31215931   5.539   5.098   3.767 -0.0736 -0.4277  0.2068
  119POPC  H12X15932   5.520   5.164   3.679 -0.6174  0.9929  1.3607
  119POPC  H12Y15933   5.446   5.091   3.828 -0.0351 -1.4437  0.1573
  119POPC  C31315934   5.576   4.956   3.724  0.0374  0.5332  0.9447
  119POPC  H13X15935   5.582   4.890   3.813  3.1947 -0.9050 -0.1645
  119POPC  H13Y15936   5.681   4.961   3.687  0.3528  1.1987  1.8956
  119POPC  C31415937   5.468   4.895   3.625  0.4517 -0.1181 -0.1739
  119POPC  H14X15938   5.488   4.916   3.518  2.4947  0.8432  0.3506
  119POPC  H14Y15939   5.373   4.952   3.638  0.5687 -0.0296  0.3095
  119POPC  C31515940   5.451   4.745   3.645  0.1979  0.3117 -0.2796
  119POPC  H15X15941   5.360   4.718   3.587  0.5240 -0.1447 -0.5835
  119POPC  H15Y15942   5.437   4.723   3.753  1.9890 -0.1981 -0.1236
  119POPC  C31615943   5.567   4.671   3.592  0.6679 -0.5182  0.7235
  119POPC  H16X15944   5.649   4.691   3.664 -0.2026 -0.0554  1.5950
  119POPC  H16Y15945   5.596   4.697   3.488  0.3641  0.4146  0.8655
  119POPC  H16Z15946   5.547   4.562   3.605  1.5820 -0.8249 -0.2180
  120POPC     N15947   1.063   0.224   2.094  0.0282  0.1079 -0.4343
  120POPC   C1215948   1.003   0.255   2.232 -0.6430  0.2113 -0.1360
  120POPC  H12A15949   0.955   0.351   2.224  2.0390  1.5236 -2.0548
  120POPC  H12B15950   1.086   0.273   2.298 -0.2579 -0.9952 -0.2695
  120POPC   C1315951   0.944   0.175   2.008 -0.2155  0.2327 -0.0278
  120POPC  H13A15952   0.967   0.120   1.918 -0.1492 -1.1320  0.7874
  120POPC  H13B15953   0.898   0.097   2.068  2.1247 -0.7146  0.6308
  120POPC  H13C15954   0.874   0.254   1.987  0.8309  0.9967 -0.6925
  120POPC   C1415955   1.112   0.351   2.037  0.6585  0.1268  0.0480
  120POPC  H14A15956   1.147   0.333   1.937 -1.0448 -3.0465 -0.1113
  120POPC  H14B15957   1.037   0.428   2.028  0.1183 -0.1862  1.5506
  120POPC  H14C15958   1.196   0.383   2.096  0.4696 -3.7454  2.8352
  120POPC   C1515959   1.168   0.122   2.105 -0.1897  0.0694  0.5910
  120POPC  H15A15960   1.112   0.033   2.131 -0.6121  0.0775 -0.2476
  120POPC  H15B15961   1.241   0.144   2.181  3.1146 -1.5333 -1.8506
  120POPC  H15C15962   1.231   0.117   2.017 -0.5291  1.8693  0.2109
  120POPC   C1115963   0.924   0.148   2.302 -0.1927 -0.0747 -0.0593
  120POPC  H11A15964   0.916   0.189   2.405  0.5155 -1.8479  0.7360
  120POPC  H11B15965   0.974   0.049   2.298 -1.5044 -0.7481 -0.5707
  120POPC     P15966   0.693   0.025   2.307 -0.4979 -0.2736 -0.0770
  120POPC   O1315967   0.777  -0.097   2.308  0.1384 -0.7617 -0.2759
  120POPC   O1415968   0.564   0.023   2.235  0.3717  0.2476 -0.4350
  120POPC   O1215969   0.791   0.135   2.239  0.3966  0.1516 -0.6948
  120POPC   O1115970   0.667   0.075   2.456  0.3301 -0.5016 -0.1526
  120POPC    C115971   0.606   0.209   2.472 -0.0255  0.5861  0.6989
  120POPC    HA15972   0.500   0.183   2.491  0.1580  0.2506  1.3077
  120POPC    HB15973   0.619   0.275   2.384 -0.7517  2.5732  2.0094
  120POPC    C215974   0.671   0.283   2.590 -0.7962 -0.2465  0.2877
  120POPC    HS15975   0.780   0.284   2.569 -0.2662 -0.0145  2.7084
  120POPC   O2115976   0.654   0.200   2.714  0.0086 -0.3108  0.4073
  120POPC   C2115977   0.728   0.243   2.815  0.5618  0.2249  0.0572
  120POPC   O2215978   0.797   0.345   2.810 -0.3608 -0.0656  0.4394
  120POPC   C2215979   0.698   0.157   2.941  0.5001 -0.5170  0.1528
  120POPC   H2R15980   0.726   0.050   2.927 -0.8799 -1.5789  4.0848
  120POPC   H2S15981   0.589   0.168   2.961  1.1024  2.6716  2.3079
  120POPC    C315982   0.604   0.422   2.610 -0.0280  0.6763 -0.2932
  120POPC    HX15983   0.599   0.452   2.503  0.7852  0.4599 -0.3947
  120POPC    HY15984   0.667   0.496   2.664  0.5208  1.7627 -2.3337
  120POPC   O3115985   0.466   0.398   2.655 -0.5498 -0.3791  0.4920
  120POPC   C3115986   0.444   0.397   2.783 -0.1146 -0.5682 -0.6539
  120POPC   O3215987   0.515   0.436   2.872 -0.6205 -0.1918 -0.3802
  120POPC   C3215988   0.302   0.347   2.807 -0.0840  0.0325  0.2221
  120POPC   H2X15989   0.303   0.237   2.787 -1.0986  0.2281 -1.0056
  120POPC   H2Y15990   0.233   0.399   2.738 -0.3412  1.4840  1.5121
  120POPC   C2315991   0.768   0.211   3.059 -0.2755 -0.3893  0.7069
  120POPC   H3R15992   0.742   0.319   3.068 -1.5223 -0.7342  1.4877
  120POPC   H3S15993   0.878   0.204   3.046 -0.5899 -2.7474 -1.4023
  120POPC   C2415994   0.745   0.136   3.191  0.3382 -0.6753 -0.5413
  120POPC   H4R15995   0.648   0.162   3.239  1.6989  0.4462  1.8113
  120POPC   H4S15996   0.828   0.162   3.261 -0.4394  0.5000 -0.0334
  120POPC   C2515997   0.738  -0.019   3.174 -0.1409 -0.3044 -0.6296
  120POPC   H5R15998   0.814  -0.057   3.103 -0.5705 -1.0909 -0.6863
  120POPC   H5S15999   0.651  -0.050   3.112  0.5714 -0.8273 -1.3756
  120POPC   C2616000   0.735  -0.092   3.316  0.0678  0.3576 -0.3360
  120POPC   H6R16001   0.653  -0.050   3.378 -0.8682 -2.8368  0.7549
  120POPC   H6S16002   0.836  -0.076   3.360 -0.4517 -0.5455  1.2309
  120POPC   C2716003   0.715  -0.240   3.302 -0.2751  0.2327 -0.5628
  120POPC   H7R16004   0.784  -0.292   3.232  0.0937 -1.3943  0.9323
  120POPC   H7S16005   0.614  -0.268   3.267  0.2977 -3.3856  0.2651
  120POPC   C2816006   0.736  -0.312   3.435  0.4532 -0.2175 -0.4793
  120POPC   H8R16007   0.833  -0.301   3.487 -0.7659  0.0860  1.8984
  120POPC   H8S16008   0.721  -0.421   3.423 -0.8646 -0.1036 -0.0568
  120POPC   C2916009   0.623  -0.275   3.527  0.5225 -0.3213 -0.1964
  120POPC   H9116010   0.532  -0.259   3.468  1.4676 -0.1442 -1.6791
  120POPC  C21016011   0.612  -0.253   3.659  0.2033 -0.4290  0.4124
  120POPC  H10116012   0.514  -0.226   3.700  0.9906  1.3432  1.2251
  120POPC  C21116013   0.728  -0.267   3.756  0.4074  0.5028  0.2598
  120POPC  H11R16014   0.773  -0.166   3.753  1.1663  0.1464 -1.1404
  120POPC  H11S16015   0.793  -0.343   3.708 -1.6896  0.0125 -1.9881
  120POPC  C21216016   0.704  -0.294   3.905 -0.5144  0.4381  0.8637
  120POPC  H12R16017   0.631  -0.378   3.909 -2.1848  1.7458 -0.6568
  120POPC  H12S16018   0.649  -0.203   3.937 -1.7451 -0.0655  0.2594
  120POPC  C21316019   0.834  -0.327   3.982  0.2408 -0.8926  0.1243
  120POPC  H13R16020   0.885  -0.230   3.998 -1.7313  0.5720 -1.8473
  120POPC  H13S16021   0.906  -0.393   3.930  2.1447  1.2691 -0.1276
  120POPC  C21416022   0.810  -0.400   4.111 -0.0690  0.3186 -0.0173
  120POPC  H14R16023   0.746  -0.487   4.087  1.1115 -0.5002 -0.2815
  120POPC  H14S16024   0.770  -0.327   4.185  0.6747  0.5296  0.1804
  120POPC  C21516025   0.942  -0.444   4.174  0.4393  0.1117 -0.0351
  120POPC  H15R16026   1.020  -0.366   4.157 -0.2126  1.5718  3.0089
  120POPC  H15S16027   0.968  -0.534   4.114 -1.4584 -0.4294 -0.1086
  120POPC  C21616028   0.932  -0.476   4.323 -0.8814  0.5666 -0.3138
  120POPC  H16R16029   0.925  -0.381   4.381 -1.1717  0.8175 -0.7585
  120POPC  H16S16030   1.027  -0.522   4.358 -0.0630 -0.8785 -3.9964
  120POPC  C21716031   0.801  -0.548   4.358  0.2179 -0.5001 -0.8848
  120POPC  H17R16032   0.786  -0.643   4.303 -0.1335  0.3207 -2.2596
  120POPC  H17S16033   0.713  -0.486   4.331 -1.1443 -1.2944  1.4423
  120POPC  C21816034   0.798  -0.584   4.508  0.1442 -0.2144 -0.3040
  120POPC  H18R16035   0.782  -0.502   4.581  1.5843  1.0479 -1.3253
  120POPC  H18S16036   0.899  -0.624   4.533  0.8492  1.1377 -0.8453
  120POPC  H18T16037   0.715  -0.656   4.523 -0.3860  0.1639 -1.3687
  120POPC   C3316038   0.254   0.353   2.955  0.1045 -0.5872  0.1392
  120POPC   H3X16039   0.253   0.461   2.981  2.0226 -0.8460  1.4996
  120POPC   H3Y16040   0.319   0.306   3.032  2.1558  4.4442  1.9160
  120POPC   C3416041   0.107   0.300   2.964 -0.3668 -0.5643 -0.9561
  120POPC   H4X16042   0.106   0.198   2.921 -2.9776 -0.9832 -0.0689
  120POPC   H4Y16043   0.046   0.369   2.901  0.1863 -0.1581 -1.0588
  120POPC   C3516044   0.055   0.306   3.102 -0.2557 -0.3177  0.5623
  120POPC   H5X16045   0.048   0.412   3.135  0.8510 -0.3658  0.9796
  120POPC   H5Y16046   0.125   0.249   3.166  0.8561  0.2036 -0.1653
  120POPC   C3616047  -0.081   0.242   3.118  0.2717 -0.3156  0.9592
  120POPC   H6X16048  -0.060   0.153   3.054  1.0512  0.5958 -0.0863
  120POPC   H6Y16049  -0.160   0.296   3.062  1.5749  0.2310 -0.3969
  120POPC   C3716050  -0.104   0.217   3.263  0.3643 -0.5456 -0.2769
  120POPC   H7X16051  -0.011   0.208   3.323  1.3388  2.6479 -1.0837
  120POPC   H7Y16052  -0.170   0.130   3.282  2.3439 -2.4113 -1.4956
  120POPC   C3816053  -0.171   0.342   3.329  0.0365 -0.0406 -0.2123
  120POPC   H8X16054  -0.273   0.335   3.286  0.1172  0.3203 -0.4621
  120POPC   H8Y16055  -0.110   0.433   3.309 -0.7071  0.5931  0.3800
  120POPC   C3916056  -0.175   0.345   3.485  0.4265  0.3249  0.1957
  120POPC   H9X16057  -0.067   0.350   3.508  0.5026  2.1879 -0.4100
  120POPC   H9Y16058  -0.209   0.249   3.529  0.3085  0.9004  1.4092
  120POPC  C31016059  -0.253   0.460   3.536  0.1333  0.2957  0.0889
  120POPC  H10X16060  -0.346   0.466   3.474 -0.9990  0.1449  1.7116
  120POPC  H10Y16061  -0.192   0.552   3.519  0.4422  0.0217 -0.2999
  120POPC  C31116062  -0.297   0.453   3.681  0.1899 -0.1309 -0.2499
  120POPC  H11X16063  -0.318   0.556   3.715  0.2753 -0.2345  0.1200
  120POPC  H11Y16064  -0.211   0.430   3.747  1.0314  1.1755 -0.8502
  120POPC  C31216065  -0.418   0.358   3.704 -0.5023 -0.3447 -0.0088
  120POPC  H12X16066  -0.388   0.254   3.678  0.7889 -0.0833  0.3674
  120POPC  H12Y16067  -0.496   0.370   3.626 -0.2409 -1.2828 -0.4210
  120POPC  C31316068  -0.478   0.383   3.841  0.1468 -0.0693 -0.2511
  120POPC  H13X16069  -0.505   0.491   3.844 -0.3456 -0.1916 -0.3583
  120POPC  H13Y16070  -0.389   0.376   3.908  0.0800  2.2235  0.1494
  120POPC  C31416071  -0.586   0.281   3.870 -0.6967  0.0984 -0.0168
  120POPC  H14X16072  -0.553   0.184   3.825 -2.0748 -1.3127  1.8228
  120POPC  H14Y16073  -0.685   0.311   3.828 -1.8585 -2.9887  0.2245
  120POPC  C31516074  -0.607   0.260   4.018  0.0647 -0.8074 -0.3550
  120POPC  H15X16075  -0.697   0.201   4.048 -0.6596  0.5518  0.2170
  120POPC  H15Y16076  -0.624   0.362   4.058 -1.9186 -1.1601 -0.1652
  120POPC  C31616077  -0.486   0.191   4.086 -0.4598 -0.4063 -0.4688
  120POPC  H16X16078  -0.455   0.100   4.031  0.3565 -0.7583  0.5365
  120POPC  H16Y16079  -0.519   0.155   4.186 -0.5486  1.8473  0.3789
  120POPC  H16Z16080  -0.401   0.261   4.102 -1.8137  1.3419 -0.5678
  121POT    POT16081   5.676   0.178   7.067 -0.1857  0.1833  0.1164
  122POT    POT16082   0.252   0.309   0.395  0.3193 -0.3704 -0.2871
  123POT    POT16083   5.138   6.060   7.457  0.1617 -0.4500 -0.1245
  124POT    POT16084   2.846   1.173   0.009  0.2344  0.1000  0.1535
  125POT    POT16085   1.794   4.790   0.831 -0.0693  0.4105  0.0263
  126POT    POT16086   0.614   5.111   2.188  0.3623  0.0695  0.0789
  127POT    POT16087   0.405   5.664   1.450 -0.0797  0.3818 -0.0002
  128POT    POT16088   2.322   5.889   7.010 -0.0759  0.1814  0.1034
  129POT    POT16089   5.255   4.999   6.842  0.0415 -0.1954 -0.0459
  130POT    POT16090   0.886   4.207   6.851 -0.2106 -0.0193 -0.1872
  131POT    POT16091   4.967   0.542   0.347  0.0530  0.0694  0.2853
  132POT    POT16092   5.695   1.502   1.089 -0.2506 -0.1270 -0.3736
  133POT    POT16093   0.379   4.803   6.596  0.2053 -0.3068 -0.0582
  134CLA    CLA16094   0.134   4.072   0.480  0.0407 -0.6568  0.4705
  135CLA    CLA16095   6.284   0.197   7.390 -0.0456 -0.0751 -0.4869
  136CLA    CLA16096   1.290   3.345   0.583 -0.1742 -0.0536 -0.0957
  137CLA    CLA16097   3.000   6.213   0.486  0.2954  0.2826 -0.2008
  138CLA    CLA16098   5.422   1.271   6.774 -0.0109  0.5431 -0.3891
  139CLA    CLA16099   4.440   4.972   7.543 -0.3146 -0.1733 -0.0861
  140CLA    CLA16100   2.954   5.875   7.305 -0.2826 -0.1061  0.0813
  141CLA    CLA16101   5.272   3.692   1.153 -0.0582 -0.4678  0.0682
  142CLA    CLA16102   4.133   2.755   7.306 -0.4051  0.0082 -0.2424
  143CLA    CLA16103   3.249   3.171   1.466  0.0411  0.0401 -0.0836
  144CLA    CLA16104   2.429   5.274   0.135  0.0133 -0.0132  0.0567
  145CLA    CLA16105   3.638   1.651   6.704 -0.1841  0.1056  0.0893
  146CLA    CLA16106   1.619   6.295   0.313 -0.2012  0.3349  0.3144
  147TIP3   OH216107   5.629   1.404   7.027 -0.1490 -0.0226 -0.4174
  147TIP3    H116108   5.573   1.389   6.950 -1.0076 -0.1875  0.2239
  147TIP3    H216109   5.689   1.330   7.028  0.8627  0.7283 -1.7608
  148TIP3   OH216110   0.420   0.596   5.544  0.0364  0.1537 -0.1350
  148TIP3    H116111   0.382   0.511   5.526  0.7037 -0.4085  0.9857
  148TIP3    H216112   0.515   0.582   5.538  0.1453  0.9093 -0.3179
  149TIP3   OH216113   0.692   4.368   1.510  0.1718  0.1692 -0.8827
  149TIP3    H116114   0.640   4.293   1.536  0.4655 -0.1631 -1.2297
  149TIP3    H216115   0.660   4.441   1.563  0.3989 -0.3663  0.0059
  150TIP3   OH216116   0.661   4.676   0.878 -0.2211  0.5607  0.5932
  150TIP3    H116117   0.624   4.668   0.790  0.8889  0.3332  0.1326
  150TIP3    H216118   0.602   4.735   0.924 -1.4574 -0.2178  0.0581
  151TIP3   OH216119   2.338   4.745   1.501  0.0336  0.1770  0.6018
  151TIP3    H116120   2.308   4.832   1.478 -1.1124 -0.6136 -1.0740
  151TIP3    H216121   2.260   4.701   1.535  0.4458 -0.4052  0.8180
  152TIP3   OH216122   2.226   0.595   1.658  0.0468  0.1389  0.2433
  152TIP3    H116123   2.204   0.530   1.724 -0.7531  0.6984  0.5403
  152TIP3    H216124   2.230   0.546   1.576 -1.6866 -0.1065  0.2769
  153TIP3   OH216125   4.859   5.212   7.758  0.1615 -0.4218 -0.2505
  153TIP3    H116126   4.822   5.179   7.840 -1.5404  0.8665 -0.4164
  153TIP3    H216127   4.797   5.183   7.690 -0.0882  0.9852 -0.6739
  154TIP3   OH216128   4.376   2.554   0.640  0.2829  0.3318 -0.3269
  154TIP3    H116129   4.322   2.480   0.613 -0.8924  0.9169  0.2913
  154TIP3    H216130   4.345   2.627   0.585  0.0946  0.7868  0.3651
  155TIP3   OH216131   2.489   5.373   2.733 -0.9186 -0.5732 -0.3056
  155TIP3    H116132   2.573   5.338   2.762 -1.7228 -0.9344  1.7357
  155TIP3    H216133   2.430   5.298   2.732 -1.3428 -0.2421 -1.2736
  156TIP3   OH216134   3.904   1.484   6.809  0.1515  0.2277 -1.0739
  156TIP3    H116135   3.952   1.550   6.858  0.6672 -0.2377 -0.9392
  156TIP3    H216136   3.814   1.515   6.808 -0.1895 -0.4436  1.4421
  157TIP3   OH216137   5.069   4.784   6.470  1.0933  1.0210  0.0642
  157TIP3    H116138   5.039   4.808   6.382  0.7185 -1.9519 -0.7030
  157TIP3    H216139   5.000   4.816   6.529 -0.4210 -0.0129 -1.0828
  158TIP3   OH216140   0.960   5.659   0.336 -0.0742 -0.2436 -0.2126
  158TIP3    H116141   1.005   5.743   0.323 -0.4588  0.1206  0.7020
  158TIP3    H216142   0.933   5.660   0.428 -1.5221 -0.6579 -0.6008
  159TIP3   OH216143   1.223   2.219   0.238  0.6287 -0.8613 -0.1830
  159TIP3    H116144   1.191   2.141   0.192  1.3339 -1.2097 -0.0872
  159TIP3    H216145   1.316   2.224   0.217  0.7331 -0.4183  0.3446
  160TIP3   OH216146   3.834   2.540   6.516 -0.2616  0.5466  0.1740
  160TIP3    H116147   3.850   2.474   6.583  1.9605 -0.4624 -1.2614
  160TIP3    H216148   3.821   2.490   6.435 -1.5423  1.7897 -0.4515
  161TIP3   OH216149   2.308   5.496   7.734 -0.1273 -0.3371 -0.4784
  161TIP3    H116150   2.382   5.556   7.727  0.7828 -1.2183  1.0450
  161TIP3    H216151   2.338   5.428   7.795 -2.1675 -0.7608  0.1172
  162TIP3   OH216152   4.232   4.961   0.946  0.3581 -0.1858  0.6256
  162TIP3    H116153   4.238   4.870   0.976 -1.6331 -0.2810  0.8794
  162TIP3    H216154   4.219   4.954   0.852 -1.0878 -0.2422  0.8163
  163TIP3   OH216155   4.907   4.731   1.967  0.2596  0.2619  0.6890
  163TIP3    H116156   4.891   4.801   2.029  0.8173  0.1745  0.9407
  163TIP3    H216157   4.835   4.669   1.980  0.6904 -0.0451  1.6695
  164TIP3   OH216158   3.097   2.801   7.121 -0.3661 -0.2547  0.6694
  164TIP3    H116159   3.123   2.711   7.140 -0.9635 -0.2549  1.5668
  164TIP3    H216160   3.157   2.855   7.171  1.8866  0.0217 -2.0712
  165TIP3   OH216161   3.861   0.152   1.483 -0.5893 -0.4389  0.1941
  165TIP3    H116162   3.830   0.135   1.394 -2.6569  0.5539  0.6558
  165TIP3    H216163   3.924   0.082   1.501 -1.8832 -2.0591 -1.2218
  166TIP3   OH216164   1.266   4.753   6.245 -0.5205 -0.5906 -0.2170
  166TIP3    H116165   1.350   4.709   6.232 -0.6552 -0.6556 -0.9197
  166TIP3    H216166   1.235   4.771   6.156 -0.8410  0.2120  0.0487
  167TIP3   OH216167   6.075   3.448   2.082 -0.4077 -0.2428 -0.0600
  167TIP3    H116168   6.153   3.489   2.121 -0.4232 -1.9560  1.9380
  167TIP3    H216169   6.111   3.382   2.022 -0.3603  0.4685 -0.8268
  168TIP3   OH216170   2.228   2.695   2.526 -0.3609  0.3075  0.4056
  168TIP3    H116171   2.144   2.659   2.497 -0.1513 -0.0724  0.2640
  168TIP3    H216172   2.286   2.619   2.533  0.2827  0.6862 -0.5833
  169TIP3   OH216173   4.504   6.298   1.935  0.3105  0.0214  0.4566
  169TIP3    H116174   4.454   6.379   1.929  0.7482  0.3657  1.3040
  169TIP3    H216175   4.459   6.247   2.002  0.2464 -0.2954  0.1781
  170TIP3   OH216176   0.909   1.277   7.423  0.7569  0.4649  0.0412
  170TIP3    H116177   0.978   1.212   7.426  0.1152 -0.1866  1.0276
  170TIP3    H216178   0.831   1.228   7.398  0.3151  0.9022  0.5462
  171TIP3   OH216179   3.971   0.874   1.110  0.1932 -0.7787  0.5845
  171TIP3    H116180   4.013   0.794   1.144 -0.7958 -0.8823  1.5951
  171TIP3    H216181   3.884   0.846   1.083  0.8519 -0.6709 -1.9901
  172TIP3   OH216182   4.758   2.588   2.276  0.3430 -0.0517 -0.1416
  172TIP3    H116183   4.800   2.641   2.343 -0.1038 -0.7215  0.6816
  172TIP3    H216184   4.733   2.507   2.321  1.4486 -1.1960 -1.4785
  173TIP3   OH216185   4.788   1.488   6.278 -0.1778  0.6778  0.3685
  173TIP3    H116186   4.760   1.578   6.261 -1.2270  0.1574 -0.9145
  173TIP3    H216187   4.733   1.435   6.220  0.2458 -0.8136  1.2715
  174TIP3   OH216188   3.016   3.620   5.889  0.2810  0.9324  0.3045
  174TIP3    H116189   3.046   3.695   5.940  0.8843  0.1627  1.1045
  174TIP3    H216190   2.921   3.619   5.901  0.3618  1.0697  0.9745
  175TIP3   OH216191   3.152   0.550   0.671 -0.5308 -0.1182 -0.3499
  175TIP3    H116192   3.239   0.514   0.652  0.7611  3.0734 -1.0680
  175TIP3    H216193   3.098   0.473   0.689  1.4696 -2.5722 -3.6477
  176TIP3   OH216194   2.481   1.739   0.466  0.3352  0.0487 -0.0631
  176TIP3    H116195   2.405   1.715   0.519  0.4881 -1.5297 -0.5201
  176TIP3    H216196   2.555   1.697   0.509  0.6363 -0.2190 -0.8254
  177TIP3   OH216197   4.013   1.161   7.162 -0.3789 -0.3319 -0.1680
  177TIP3    H116198   4.024   1.256   7.150 -1.1244 -0.3905 -1.5711
  177TIP3    H216199   3.974   1.153   7.249 -0.3273  0.6452 -0.0326
  178TIP3   OH216200   4.023   5.059   6.707  0.3079 -0.1874 -0.5604
  178TIP3    H116201   4.083   5.028   6.775 -1.1564 -1.2943  0.2957
  178TIP3    H216202   4.029   4.993   6.638  0.1662 -0.2561 -0.5091
  179TIP3   OH216203   2.100   4.121   1.243 -0.3004  0.4985  0.1461
  179TIP3    H116204   2.077   4.126   1.150 -0.8610 -0.3206  0.2336
  179TIP3    H216205   2.140   4.206   1.262  1.1002  0.1855 -1.1798
  180TIP3   OH216206   5.925   0.807   0.981  0.4709  0.3187 -0.0120
  180TIP3    H116207   5.897   0.875   1.042  0.9337 -0.0696  0.6490
  180TIP3    H216208   5.849   0.750   0.973 -0.0895  1.1713 -0.9590
  181TIP3   OH216209   4.600   2.077   7.284 -0.5042 -0.1336  0.4809
  181TIP3    H116210   4.647   2.146   7.332 -0.5639 -0.1008  0.4920
  181TIP3    H216211   4.529   2.051   7.343  0.4070 -1.2575  1.1226
  182TIP3   OH216212   4.386   5.575   1.697 -0.4722 -0.1760 -0.4150
  182TIP3    H116213   4.444   5.646   1.670 -1.0007 -0.6466 -3.1368
  182TIP3    H216214   4.443   5.516   1.747  0.8966  0.3791 -1.2573
  183TIP3   OH216215   3.596   3.694   0.364 -0.0738 -0.1180 -0.4470
  183TIP3    H116216   3.662   3.762   0.358  0.8421 -1.1024 -3.9410
  183TIP3    H216217   3.645   3.612   0.372 -1.0621 -0.6384  0.8080
  184TIP3   OH216218   0.058   1.949   7.296  0.4082 -0.2122  0.3208
  184TIP3    H116219   0.066   1.996   7.378 -1.6862 -0.0161  0.4560
  184TIP3    H216220   0.004   1.873   7.317 -0.2975 -0.0676 -0.8906
  185TIP3   OH216221   4.346   2.087   6.167 -0.0952  0.3046  0.5106
  185TIP3    H116222   4.296   2.034   6.105 -0.0257  0.9679 -0.1270
  185TIP3    H216223   4.307   2.175   6.161  1.6573  1.0715 -0.6619
  186TIP3   OH216224   2.490   2.651   7.666 -0.1960 -0.7281 -0.0236
  186TIP3    H116225   2.401   2.658   7.631 -0.4758  2.2525  1.0391
  186TIP3    H216226   2.547   2.675   7.593 -0.4376  0.0685  0.0472
  187TIP3   OH216227   5.715   5.712   0.891 -0.6380 -0.8604  0.5476
  187TIP3    H116228   5.769   5.688   0.817  0.9711 -0.2959  1.4881
  187TIP3    H216229   5.724   5.807   0.898 -0.6395 -0.9174  1.5399
  188TIP3   OH216230   3.678   3.142   0.515 -0.6754 -0.3698  0.3005
  188TIP3    H116231   3.679   3.054   0.477 -2.6451 -0.6384  0.7351
  188TIP3    H216232   3.611   3.189   0.464  1.9846  1.7346 -1.5589
  189TIP3   OH216233   2.553   5.745   6.013  0.2104 -0.1686  0.1179
  189TIP3    H116234   2.522   5.656   6.029 -0.2931 -0.2704 -1.2703
  189TIP3    H216235   2.627   5.734   5.954  0.2542  0.3252  0.0775
  190TIP3   OH216236   0.972   1.544   7.348  0.5989 -0.6301  0.3181
  190TIP3    H116237   0.947   1.579   7.434  1.0672  0.1218  0.1633
  190TIP3    H216238   0.970   1.449   7.359  2.5569 -0.5521  1.7323
  191TIP3   OH216239   5.723   1.248   1.017  0.6591  0.2655 -0.0249
  191TIP3    H116240   5.794   1.235   0.955  1.1819  0.8729  0.4215
  191TIP3    H216241   5.687   1.161   1.032  1.2854 -0.0456 -0.2985
  192TIP3   OH216242   2.119   0.165   6.468 -0.9894  0.3745  0.3547
  192TIP3    H116243   2.191   0.127   6.418  0.2255  2.6660  0.2166
  192TIP3    H216244   2.079   0.091   6.513  1.0040 -1.0774 -0.1343
  193TIP3   OH216245   0.405   2.908   5.711 -0.3669  0.1113 -0.0520
  193TIP3    H116246   0.360   2.973   5.767 -0.3242 -0.7139  0.9674
  193TIP3    H216247   0.410   2.951   5.626 -1.9324  0.7574  0.1323
  194TIP3   OH216248   1.252   3.047   0.751  0.5459 -0.1523  0.4065
  194TIP3    H116249   1.265   3.121   0.692  0.0451 -1.2516 -1.1634
  194TIP3    H216250   1.157   3.034   0.752  0.5817 -0.4095  1.1615
  195TIP3   OH216251   5.217   0.435   7.489  0.0113 -0.0932  0.4484
  195TIP3    H116252   5.171   0.468   7.412  0.0916  1.1103  0.8999
  195TIP3    H216253   5.216   0.340   7.478 -1.3455 -0.0222 -0.2532
  196TIP3   OH216254   4.496   2.524   2.144 -0.8827  0.3179 -0.0659
  196TIP3    H116255   4.520   2.512   2.052  1.7346 -0.0315  0.5890
  196TIP3    H216256   4.576   2.555   2.186 -0.7392 -3.3517  2.8737
  197TIP3   OH216257   2.287   4.088   6.208 -0.0830  0.2905 -0.0173
  197TIP3    H116258   2.322   4.104   6.295 -1.5168 -0.7889  0.7928
  197TIP3    H216259   2.359   4.044   6.161 -0.1023 -1.3627  1.4147
  198TIP3   OH216260   0.548   2.776   6.788 -0.3451  0.0742  0.0386
  198TIP3    H116261   0.591   2.728   6.717 -0.6931  0.0477 -0.1556
  198TIP3    H216262   0.591   2.745   6.867  2.1878  2.2846 -0.3187
  199TIP3   OH216263   2.628   4.796   2.543 -0.2760  0.0372  0.1563
  199TIP3    H116264   2.677   4.877   2.528  0.7256 -0.5692  0.0388
  199TIP3    H216265   2.542   4.824   2.573  0.0438  1.1431  0.0557
  200TIP3   OH216266   3.101   0.674   6.552  0.5640  0.3059  0.3288
  200TIP3    H116267   3.013   0.705   6.529  0.3617  0.6339  1.4444
  200TIP3    H216268   3.085   0.594   6.602  0.8286  0.8485  1.3141
  201TIP3   OH216269   2.652   1.414   1.753 -0.1463 -0.3327 -0.8186
  201TIP3    H116270   2.672   1.506   1.742  2.5060 -1.1398 -4.0587
  201TIP3    H216271   2.587   1.395   1.686  0.6339 -1.1499 -1.3654
  202TIP3   OH216272   2.728   0.074   3.002  0.9047  0.2408 -0.3101
  202TIP3    H116273   2.816   0.060   2.966  0.7234 -0.4133 -0.5297
  202TIP3    H216274   2.683  -0.009   2.985  0.5195  0.2539  0.5946
  203TIP3   OH216275   4.063   4.315   1.591  0.3464  0.4101  0.0979
  203TIP3    H116276   4.126   4.257   1.634  1.4221  0.3505 -1.4546
  203TIP3    H216277   4.007   4.346   1.662  0.2107 -1.8991  1.0851
  204TIP3   OH216278   4.859   1.270   1.905  0.0042 -0.7136 -0.2397
  204TIP3    H116279   4.810   1.188   1.912 -0.7050 -0.1659  2.4929
  204TIP3    H216280   4.794   1.338   1.925  1.3965  0.1640  1.6717
  205TIP3   OH216281   4.281   1.023   7.036  0.3614 -0.2140 -0.1116
  205TIP3    H116282   4.335   0.945   7.050  0.6836  0.2438  1.2947
  205TIP3    H216283   4.204   1.010   7.090 -0.2474 -0.1787 -0.9549
  206TIP3   OH216284   1.468   0.891   7.139 -0.8029 -0.3523 -0.5708
  206TIP3    H116285   1.479   0.800   7.112 -3.0519 -0.3758 -1.5834
  206TIP3    H216286   1.557   0.920   7.159 -0.2839 -3.8681  3.6860
  207TIP3   OH216287   0.127   0.978   0.245  0.4597  0.5155  0.2403
  207TIP3    H116288   0.096   1.021   0.166 -0.1536  0.8305  0.6426
  207TIP3    H216289   0.078   0.895   0.247 -0.1990  0.9077  0.7519
  208TIP3   OH216290   5.305   3.184   1.149 -0.0302 -0.3147 -0.4198
  208TIP3    H116291   5.217   3.165   1.181  0.3917 -0.5199  0.6771
  208TIP3    H216292   5.361   3.124   1.198  1.1270  2.2619  1.6292
  209TIP3   OH216293   3.415   4.738   2.423 -0.4264  0.6956  0.2547
  209TIP3    H116294   3.388   4.687   2.499 -0.4124 -0.0185 -0.2102
  209TIP3    H216295   3.511   4.734   2.424 -0.4414 -0.6996 -0.6957
  210TIP3   OH216296   0.735   0.225   0.762  0.2666 -0.5020  0.1586
  210TIP3    H116297   0.720   0.165   0.835 -2.2863 -0.3578 -0.1752
  210TIP3    H216298   0.694   0.182   0.687 -4.7463  2.8779  0.5278
  211TIP3   OH216299   3.525   1.729   6.172 -0.1552  0.6416  0.0784
  211TIP3    H116300   3.431   1.741   6.156  0.1764  0.7651 -2.0840
  211TIP3    H216301   3.553   1.809   6.215 -1.2163  0.1619  1.7378
  212TIP3   OH216302   4.588   1.665   1.344  0.4374  0.2212 -0.4223
  212TIP3    H116303   4.678   1.671   1.374  0.8663  1.4982 -1.8445
  212TIP3    H216304   4.594   1.642   1.251 -0.7462 -0.9321 -0.2455
  213TIP3   OH216305   5.823   2.048   2.107  0.2621 -0.8603  0.0566
  213TIP3    H116306   5.806   1.986   2.037  0.9611 -0.4317 -0.5005
  213TIP3    H216307   5.763   2.121   2.090  0.5881 -0.6559 -0.2319
  214TIP3   OH216308   3.281   2.288   1.647  0.3689 -0.4850  0.3543
  214TIP3    H116309   3.343   2.357   1.671  0.8783  0.7537 -3.6950
  214TIP3    H216310   3.196   2.319   1.678  1.0537  0.2276  1.5899
  215TIP3   OH216311   2.222   4.026   7.064  0.0446  0.0525  0.2120
  215TIP3    H116312   2.214   4.043   7.158 -0.3218 -0.2732  0.2394
  215TIP3    H216313   2.312   4.053   7.043 -0.2248  1.1941  0.4321
  216TIP3   OH216314   6.232   2.373   7.557 -0.5207 -0.0064  0.4614
  216TIP3    H116315   6.273   2.317   7.491  0.6537 -1.4730  2.3462
  216TIP3    H216316   6.305   2.418   7.600 -1.3490  1.9046 -0.0149
  217TIP3   OH216317   3.769   6.273   0.641 -0.3337 -0.1925 -0.5545
  217TIP3    H116318   3.707   6.230   0.700  1.4996 -0.9206  0.9537
  217TIP3    H216319   3.813   6.201   0.596 -1.1787  0.3400 -2.3236
  218TIP3   OH216320   1.862   2.996   6.576  0.0554 -0.3700 -0.2356
  218TIP3    H116321   1.791   3.014   6.515  0.3333  1.7716  0.0139
  218TIP3    H216322   1.921   3.071   6.568  1.0338 -0.9097  1.3460
  219TIP3   OH216323   1.715   0.998   0.345  0.3436  0.0145  0.4455
  219TIP3    H116324   1.752   0.910   0.351 -1.7495 -0.8283  2.5111
  219TIP3    H216325   1.759   1.047   0.414  0.3073  0.1027  0.4054
  220TIP3   OH216326   2.917   3.727   7.021 -0.0121  0.4939 -0.1969
  220TIP3    H116327   2.936   3.807   7.069 -0.6433  0.2648  0.4621
  220TIP3    H216328   2.965   3.659   7.068 -1.9900 -0.0242  1.2441
  221TIP3   OH216329   1.825   1.056   1.849 -0.0211  0.3208  0.2918
  221TIP3    H116330   1.759   0.994   1.819 -3.6833  2.7478  2.4841
  221TIP3    H216331   1.854   1.021   1.933  1.0731 -0.4161 -0.3717
  222TIP3   OH216332   3.381   1.638   7.729 -0.3218 -0.1580  0.3905
  222TIP3    H116333   3.418   1.598   7.808 -0.2669 -1.2712 -0.1807
  222TIP3    H216334   3.304   1.585   7.709 -0.4472  0.2361 -0.1874
  223TIP3   OH216335   3.958   2.751   1.334 -0.3170 -0.1237  0.1624
  223TIP3    H116336   3.937   2.830   1.384  0.8820  0.4825 -0.2458
  223TIP3    H216337   4.039   2.718   1.373 -1.3638 -1.8092  1.0420
  224TIP3   OH216338   4.310   4.021   2.161  0.1000 -0.7139 -0.1789
  224TIP3    H116339   4.274   3.965   2.230  1.1083 -0.0354  0.9334
  224TIP3    H216340   4.397   3.986   2.145  0.6720  0.3950  0.3979
  225TIP3   OH216341   6.118   1.614   0.245  0.1222  0.4944 -0.0478
  225TIP3    H116342   6.125   1.519   0.248  0.9446  0.2422 -4.0091
  225TIP3    H216343   6.025   1.631   0.230  0.0513  0.2790  0.1420
  226TIP3   OH216344   4.455   1.052   1.296 -0.3236 -0.4770 -0.2777
  226TIP3    H116345   4.535   1.051   1.244  0.2241 -1.7386  0.5519
  226TIP3    H216346   4.447   1.143   1.325  1.5374 -0.5626  0.6950
  227TIP3   OH216347   4.893   4.486   6.899  0.4520 -0.4746 -0.3142
  227TIP3    H116348   4.830   4.432   6.851 -0.0765 -0.1180 -0.0412
  227TIP3    H216349   4.959   4.510   6.834  0.3887 -0.9772 -0.5698
  228TIP3   OH216350   0.442   0.045   0.700 -0.2841 -0.3088  0.2165
  228TIP3    H116351   0.454   0.078   0.611 -0.6125  1.0010  0.6415
  228TIP3    H216352   0.527   0.007   0.723 -0.3551 -1.1685 -0.8363
  229TIP3   OH216353   3.163   3.171   1.177 -0.0581  0.2577  0.3664
  229TIP3    H116354   3.208   3.254   1.171 -1.8079  1.4346  2.1040
  229TIP3    H216355   3.186   3.137   1.264  0.1624 -0.7901 -0.0807
  230TIP3   OH216356   5.140   0.340   7.096 -0.1044 -0.3730  0.2472
  230TIP3    H116357   5.158   0.288   7.174  0.2165 -0.9237 -0.1881
  230TIP3    H216358   5.130   0.429   7.129  2.6473 -0.1064  0.6612
  231TIP3   OH216359   1.635   4.434   7.376  0.7737  0.0623 -0.3803
  231TIP3    H116360   1.606   4.373   7.309 -0.0662  0.3721 -0.3046
  231TIP3    H216361   1.681   4.379   7.440 -0.2713 -0.5573 -0.1345
  232TIP3   OH216362   1.783   1.718   0.524  0.2378 -0.5773 -0.1102
  232TIP3    H116363   1.755   1.775   0.596 -1.9677  0.5286 -1.7117
  232TIP3    H216364   1.876   1.737   0.513  0.4129 -0.1053  1.8296
  233TIP3   OH216365   1.764   4.304   2.145 -0.6551 -0.6799  0.4016
  233TIP3    H116366   1.817   4.382   2.126 -0.1778 -0.9245  0.7051
  233TIP3    H216367   1.700   4.333   2.209 -0.8327 -0.4057  0.1051
  234TIP3   OH216368   4.176   5.609   6.640 -0.3508  0.3017  0.3056
  234TIP3    H116369   4.165   5.568   6.555 -0.0429 -1.7584  1.1905
  234TIP3    H216370   4.177   5.535   6.702 -1.7077  1.7779  2.2191
  235TIP3   OH216371   4.537   2.715   7.092 -0.3622 -0.1473  0.0771
  235TIP3    H116372   4.605   2.700   7.026 -0.3810 -0.4581  0.1271
  235TIP3    H216373   4.464   2.753   7.042 -0.2039  0.0639  0.0012
  236TIP3   OH216374   3.977   2.875   7.071 -0.3468 -0.0035 -0.5052
  236TIP3    H116375   4.023   2.854   7.153 -2.4380 -2.2667  0.2089
  236TIP3    H216376   4.019   2.818   7.006 -1.5029 -1.4769 -0.0197
  237TIP3   OH216377   6.022   5.120   6.665  0.1654 -0.3304 -0.4688
  237TIP3    H116378   6.072   5.038   6.661 -1.3124 -1.2819  0.0461
  237TIP3    H216379   6.021   5.152   6.574  0.7430 -0.8790 -0.6770
  238TIP3   OH216380   2.177   0.853   0.177 -0.2158 -0.0595 -0.0725
  238TIP3    H116381   2.122   0.796   0.123  0.7383 -0.2886 -0.8319
  238TIP3    H216382   2.141   0.941   0.163 -1.0666 -0.3344  0.3188
  239TIP3   OH216383   3.196   4.768   2.074 -0.3465  0.4138 -0.0030
  239TIP3    H116384   3.116   4.717   2.055  0.4808 -0.7639 -0.4900
  239TIP3    H216385   3.233   4.726   2.151  0.7141 -0.2042 -0.8182
  240TIP3   OH216386   0.304   3.586   7.554 -0.2681  0.3649 -0.3050
  240TIP3    H116387   0.342   3.514   7.603  0.7837 -0.2342 -1.9222
  240TIP3    H216388   0.270   3.646   7.621  0.4676 -0.7420  1.0984
  241TIP3   OH216389   0.475   4.050   0.497 -0.7148 -0.1274  0.5515
  241TIP3    H116390   0.387   4.084   0.481 -0.4845  0.4148  0.3982
  241TIP3    H216391   0.471   4.013   0.585 -1.0541  0.0287  0.6045
  242TIP3   OH216392   2.612   3.482   0.661  0.1767 -0.3306 -0.0142
  242TIP3    H116393   2.519   3.472   0.681  0.0940  0.0367 -0.1983
  242TIP3    H216394   2.635   3.567   0.697  0.6692 -0.8113  0.8395
  243TIP3   OH216395   3.540   4.808   0.026 -0.0239 -0.1304 -0.6967
  243TIP3    H116396   3.569   4.856  -0.051 -0.3669 -0.7020 -1.1960
  243TIP3    H216397   3.453   4.844   0.045  0.7084  1.1078  0.3862
  244TIP3   OH216398   2.132   4.273   0.750 -0.0484 -0.0670 -0.2812
  244TIP3    H116399   2.124   4.359   0.792 -1.6800  0.1417 -0.9403
  244TIP3    H216400   2.145   4.293   0.657 -1.4457 -0.5131 -0.5929
  245TIP3   OH216401   0.829   1.673   1.681  0.0503  0.0997 -0.1032
  245TIP3    H116402   0.924   1.661   1.673  0.0174 -0.5932  0.3746
  245TIP3    H216403   0.800   1.697   1.594  0.7371  0.8518 -0.1331
  246TIP3   OH216404   0.027   2.254   0.799 -0.5252 -0.1647  0.0620
  246TIP3    H116405   0.073   2.172   0.783  3.6443  1.9654 -0.3071
  246TIP3    H216406   0.028   2.264   0.895 -1.9132 -0.9370  0.1724
  247TIP3   OH216407   4.254   5.499   0.414  0.2011 -0.1808 -0.2342
  247TIP3    H116408   4.320   5.435   0.388 -1.6592 -2.2027 -0.2734
  247TIP3    H216409   4.200   5.454   0.478 -0.6325  1.7090  0.4771
  248TIP3   OH216410   4.267   1.328   6.978  0.1686 -0.0838 -0.0229
  248TIP3    H116411   4.289   1.247   7.023 -2.8445  0.2989  2.4742
  248TIP3    H216412   4.174   1.320   6.957 -0.1696  2.5676  0.0266
  249TIP3   OH216413   2.237   4.334   7.265 -0.3553 -0.6893 -0.0001
  249TIP3    H116414   2.172   4.403   7.278  0.6777  0.2902  0.1654
  249TIP3    H216415   2.201   4.258   7.310 -0.8378  0.1759  1.1475
  250TIP3   OH216416   6.235   0.374   1.586  0.2099 -0.0290 -0.0978
  250TIP3    H116417   6.222   0.445   1.523  0.1099 -1.5381 -1.8470
  250TIP3    H216418   6.324   0.343   1.570 -0.2324 -1.2200 -0.3865
  251TIP3   OH216419   4.251   2.276   7.669  0.3478 -0.3768 -0.1665
  251TIP3    H116420   4.330   2.265   7.722  0.4772  0.7710 -0.1046
  251TIP3    H216421   4.276   2.336   7.599 -0.7975  1.0620  0.6070
  252TIP3   OH216422   0.570   5.383   0.020  0.0255 -0.2257 -0.1485
  252TIP3    H116423   0.616   5.304  -0.008  0.0991  0.0440 -0.8252
  252TIP3    H216424   0.565   5.377   0.115  1.3574 -0.3270 -0.0730
  253TIP3   OH216425   3.096   1.502   2.589  0.5988  0.7719 -0.1449
  253TIP3    H116426   3.185   1.487   2.557  0.5961 -0.9129  0.5314
  253TIP3    H216427   3.109   1.538   2.677  0.6671 -0.5958  0.4410
  254TIP3   OH216428   0.366   5.804   7.068  0.2873 -0.2112 -0.2355
  254TIP3    H116429   0.370   5.713   7.038  0.7065  0.4830 -2.4782
  254TIP3    H216430   0.303   5.803   7.140  0.5158 -2.3203 -0.0107
  255TIP3   OH216431   3.898   3.491   0.057  0.3101 -0.0131  0.6700
  255TIP3    H116432   3.919   3.451   0.141  0.9133  1.3990  1.2250
  255TIP3    H216433   3.921   3.425  -0.008  1.4693 -0.4928  1.5350
  256TIP3   OH216434   1.935   4.291   7.169 -0.2825 -0.2718  0.3015
  256TIP3    H116435   1.856   4.266   7.122 -0.9021 -0.2609  1.3120
  256TIP3    H216436   1.938   4.231   7.244 -1.4673  2.1769  2.4436
  257TIP3   OH216437   6.144   4.413   2.731  0.0002 -0.0025  0.1161
  257TIP3    H116438   6.079   4.483   2.736 -0.2390 -0.0120 -1.9740
  257TIP3    H216439   6.197   4.424   2.810 -1.0682  1.4757  0.6775
  258TIP3   OH216440   2.802   2.654   7.147  0.2769  0.2087 -0.3872
  258TIP3    H116441   2.889   2.625   7.120 -0.7073 -2.8496 -0.7162
  258TIP3    H216442   2.805   2.653   7.243  0.4206 -0.7279 -0.3848
  259TIP3   OH216443   0.365   0.826   2.731 -0.3240  0.3035  0.2065
  259TIP3    H116444   0.317   0.895   2.777 -0.1226 -1.8038  3.9841
  259TIP3    H216445   0.297   0.765   2.702 -0.3635  1.0897 -1.4614
  260TIP3   OH216446   3.108   4.028   6.721  0.1105 -0.1266  0.4553
  260TIP3    H116447   3.108   3.938   6.752 -0.3750 -0.4261 -0.3672
  260TIP3    H216448   3.065   4.078   6.791  0.0424 -0.5923  0.7467
  261TIP3   OH216449   0.650   2.270   1.700 -0.3826  0.1598  0.2294
  261TIP3    H116450   0.639   2.347   1.755 -3.1892 -0.1708  0.2604
  261TIP3    H216451   0.563   2.254   1.663  0.2498 -2.5994 -0.2943
  262TIP3   OH216452   3.301   2.677   6.691 -0.2483 -0.4355 -0.4710
  262TIP3    H116453   3.371   2.614   6.709  0.0066 -0.5135 -1.6416
  262TIP3    H216454   3.264   2.648   6.608  0.4035  1.4265 -1.4536
  263TIP3   OH216455   1.523   1.815   1.403  0.1294 -0.5986 -0.4147
  263TIP3    H116456   1.441   1.767   1.412 -0.6823  0.7048 -0.5318
  263TIP3    H216457   1.545   1.842   1.493 -1.1266  1.4608 -0.6521
  264TIP3   OH216458   3.470   0.233   6.390 -0.0854 -0.2052 -0.4939
  264TIP3    H116459   3.513   0.170   6.332  0.0293  0.6669 -1.4069
  264TIP3    H216460   3.452   0.309   6.333  1.7268  1.4525  0.9794
  265TIP3   OH216461   0.620   2.024   6.455 -0.3428 -0.4433 -0.4660
  265TIP3    H116462   0.561   2.075   6.400  0.5562  1.0173 -0.1608
  265TIP3    H216463   0.670   2.090   6.504  1.6909 -1.5752 -0.8794
  266TIP3   OH216464   1.839   4.364   0.784  0.0630  0.1047  0.1829
  266TIP3    H116465   1.779   4.302   0.742  0.3869 -0.3535  0.3952
  266TIP3    H216466   1.924   4.321   0.781  0.2862  0.5348  0.3421
  267TIP3   OH216467   6.000   5.240   1.574 -0.1196  0.9053 -0.4384
  267TIP3    H116468   6.038   5.226   1.661  1.6478  0.5183 -1.2195
  267TIP3    H216469   5.971   5.153   1.546  2.5166  0.2900 -1.5872
  268TIP3   OH216470   6.172   6.088   2.001 -0.0572  0.2806  0.1460
  268TIP3    H116471   6.127   6.171   1.982  1.5339  1.0292 -0.5395
  268TIP3    H216472   6.157   6.074   2.094  0.4729  1.8846  0.5093
  269TIP3   OH216473   3.043   2.955   0.104 -0.6565  0.3664  0.4940
  269TIP3    H116474   3.093   2.924   0.179  0.4759  0.9820  0.0142
  269TIP3    H216475   2.990   2.879   0.078 -1.5381  0.3363  2.2639
  270TIP3   OH216476   5.234   0.527   6.231  0.3534  0.3630 -0.2090
  270TIP3    H116477   5.155   0.514   6.285  0.5477  0.9034  0.2080
  270TIP3    H216478   5.263   0.438   6.210  0.5753  0.1273  1.0226
  271TIP3   OH216479   4.696   2.905   6.637 -0.2639 -0.1571 -0.2650
  271TIP3    H116480   4.698   2.830   6.577  0.5840 -0.0762 -0.3492
  271TIP3    H216481   4.614   2.950   6.617  0.3900  0.3491 -1.9600
  272TIP3   OH216482   5.340   3.143   0.515 -0.0064 -0.2490 -0.6996
  272TIP3    H116483   5.359   3.216   0.574  0.1624 -0.6668 -0.2378
  272TIP3    H216484   5.421   3.131   0.465 -0.1717  0.1482 -1.0703
  273TIP3   OH216485   3.785   4.685   2.059 -0.0279 -0.3129 -0.1403
  273TIP3    H116486   3.795   4.736   2.139  2.0474  0.9422 -1.1114
  273TIP3    H216487   3.724   4.615   2.082 -1.7858  1.6918  1.6944
  274TIP3   OH216488   2.026   3.801   2.015  0.0189  0.3442 -0.0080
  274TIP3    H116489   2.116   3.795   2.049  0.2082  1.6508 -0.2313
  274TIP3    H216490   2.034   3.852   1.934 -0.7203 -0.9221 -0.9150
  275TIP3   OH216491   2.797   3.585   6.823 -0.2587  0.9626  0.1732
  275TIP3    H116492   2.840   3.651   6.877  0.4130  1.6315 -1.1200
  275TIP3    H216493   2.865   3.520   6.806  0.8490  2.7346 -3.0612
  276TIP3   OH216494   2.954   5.288   7.312  0.1880  0.2739  0.2266
  276TIP3    H116495   2.917   5.347   7.378  0.9821  0.4989  0.4842
  276TIP3    H216496   3.008   5.227   7.362  1.9593  1.3296 -0.3079
  277TIP3   OH216497   1.968   4.481   2.063 -0.0581 -0.0944 -0.0096
  277TIP3    H116498   2.061   4.466   2.079 -0.0914  0.7491  1.0268
  277TIP3    H216499   1.966   4.525   1.978  0.6545  1.5474  0.7763
  278TIP3   OH216500   2.462   2.599   7.306  0.3351  0.0104  0.3706
  278TIP3    H116501   2.555   2.598   7.327  0.4297 -0.9086 -0.0321
  278TIP3    H216502   2.458   2.611   7.211  0.0081  0.9012  0.4845
  279TIP3   OH216503   3.683   1.766   7.252  0.2514 -0.3312 -0.0027
  279TIP3    H116504   3.769   1.784   7.290  0.6373 -1.2687 -0.4034
  279TIP3    H216505   3.689   1.676   7.220 -1.0168 -0.5446  0.3149
  280TIP3   OH216506   5.694   2.758   1.360 -0.0132  0.1202  0.2396
  280TIP3    H116507   5.763   2.700   1.394  1.2969  0.6369 -1.4173
  280TIP3    H216508   5.650   2.706   1.293 -0.1521  0.3651  0.1417
  281TIP3   OH216509   0.556   0.711   2.907 -0.1509 -0.0505  0.0074
  281TIP3    H116510   0.486   0.758   2.861 -0.8105 -0.6647  0.3577
  281TIP3    H216511   0.529   0.619   2.903 -0.1455 -0.1277  1.4874
  282TIP3   OH216512   5.038   5.717   7.029  0.1533 -0.0144 -0.5657
  282TIP3    H116513   4.944   5.701   7.031 -0.1042  1.4294  0.4277
  282TIP3    H216514   5.071   5.683   7.112  0.6529 -1.1190 -1.1821
  283TIP3   OH216515   0.904   2.482   5.918  0.1925 -0.6081  0.4865
  283TIP3    H116516   0.993   2.515   5.927 -0.2594  0.6100  0.6647
  283TIP3    H216517   0.850   2.546   5.965 -0.7578 -1.4071  0.5009
  284TIP3   OH216518   3.145   4.419   1.911 -0.1222 -0.4181 -0.1015
  284TIP3    H116519   3.135   4.399   2.005 -1.6068  0.5084 -0.0318
  284TIP3    H216520   3.102   4.346   1.867  0.1181 -0.5909 -0.0535
  285TIP3   OH216521   0.886   1.092   2.513  0.3976  0.0512  0.3587
  285TIP3    H116522   0.896   1.165   2.452  0.7253  0.1411  0.5178
  285TIP3    H216523   0.895   1.132   2.599  0.8619 -0.2200  0.4380
  286TIP3   OH216524   4.517   2.623   1.311 -0.4213 -0.2574 -0.4946
  286TIP3    H116525   4.425   2.642   1.293 -0.2261  0.7906 -0.4698
  286TIP3    H216526   4.565   2.670   1.242  0.1534  0.4658  0.3786
  287TIP3   OH216527   3.387   4.047   0.788 -0.4032 -0.3985 -0.0855
  287TIP3    H116528   3.436   4.063   0.708 -0.7509  1.6182  0.0492
  287TIP3    H216529   3.318   4.114   0.788 -0.5769 -0.5158  1.7397
  288TIP3   OH216530   1.208   3.541   0.864 -0.1808 -0.8270  0.5623
  288TIP3    H116531   1.176   3.477   0.928 -0.4138 -1.7364 -0.4317
  288TIP3    H216532   1.222   3.489   0.785 -1.7269  0.5894 -0.6987
  289TIP3   OH216533   2.745   0.340   7.112 -0.1189  0.3149 -0.2948
  289TIP3    H116534   2.699   0.366   7.191  0.2454  0.3819 -0.1021
  289TIP3    H216535   2.824   0.295   7.143 -0.3164 -0.2704 -0.6199
  290TIP3   OH216536   4.742   2.077   6.733  0.1187  0.0247  0.3745
  290TIP3    H116537   4.825   2.117   6.705 -0.9997  1.0438 -1.7195
  290TIP3    H216538   4.745   2.082   6.828  2.7675 -0.6514  0.4065
  291TIP3   OH216539   1.156   4.334   7.566  0.3944  0.0521  0.0659
  291TIP3    H116540   1.204   4.288   7.497  1.0307 -2.0464  1.7989
  291TIP3    H216541   1.217   4.402   7.597 -0.3710  1.8921 -2.1795
  292TIP3   OH216542   0.329   0.276   1.105 -0.0481  0.3723 -0.0581
  292TIP3    H116543   0.406   0.329   1.085 -0.6850  1.2984 -0.1820
  292TIP3    H216544   0.363   0.197   1.145  1.1625 -0.5276 -2.6095
  293TIP3   OH216545   3.620   3.446   7.760  0.3260 -0.0032  0.0026
  293TIP3    H116546   3.716   3.442   7.766  0.4231  1.4627 -0.3325
  293TIP3    H216547   3.603   3.494   7.679 -0.6130  2.3516  1.4928
  294TIP3   OH216548   4.789   2.109   0.453 -0.0289 -0.1644 -0.4658
  294TIP3    H116549   4.812   2.049   0.524  0.2253 -0.3576 -0.7060
  294TIP3    H216550   4.709   2.152   0.483 -0.5666 -1.0721 -0.5574
  295TIP3   OH216551   4.365   3.498   0.524  0.0813  0.4867  0.2219
  295TIP3    H116552   4.313   3.424   0.490  1.6911 -0.6231  0.0817
  295TIP3    H216553   4.365   3.485   0.619  1.0491 -0.1762  0.1364
  296TIP3   OH216554   1.702   1.471   0.275 -0.0643  0.4812  0.0454
  296TIP3    H116555   1.667   1.559   0.281 -0.6053  0.4049 -1.4464
  296TIP3    H216556   1.625   1.414   0.272  0.2772 -0.0591  1.0718
  297TIP3   OH216557   4.520   1.183   5.834 -0.4559  1.2017  0.3336
  297TIP3    H116558   4.590   1.141   5.784  0.0206  0.8421  1.2783
  297TIP3    H216559   4.440   1.139   5.806 -0.1356  0.6581  0.2585
  298TIP3   OH216560   0.748   0.949   7.138 -0.3060 -0.5975 -0.3960
  298TIP3    H116561   0.761   0.976   7.229  0.5748 -1.6287 -0.1977
  298TIP3    H216562   0.745   1.031   7.089  0.3228 -0.0639  0.4264
  299TIP3   OH216563   1.876   1.455   6.706  0.0965 -0.0071  0.3107
  299TIP3    H116564   1.914   1.432   6.791  0.2300 -0.1588  0.2121
  299TIP3    H216565   1.793   1.408   6.704 -0.4541  0.9043  0.8331
  300TIP3   OH216566   1.152   0.929   6.933 -0.1418  0.0038 -0.5848
  300TIP3    H116567   1.111   0.855   6.978 -0.1721  0.4394  0.1270
  300TIP3    H216568   1.082   0.967   6.880 -0.2639 -0.1652 -0.5456
  301TIP3   OH216569   0.983   1.365   0.955 -0.1904 -0.5631  0.3972
  301TIP3    H116570   0.943   1.334   1.036 -0.9802  1.3843  0.8278
  301TIP3    H216571   1.038   1.438   0.982 -2.0021  1.4406 -0.9459
  302TIP3   OH216572   0.838   1.632   6.852  0.3663  0.3416  0.2593
  302TIP3    H116573   0.757   1.680   6.835  0.1235 -0.5300 -1.2052
  302TIP3    H216574   0.819   1.580   6.929 -1.2203 -1.3892 -1.2061
  303TIP3   OH216575   5.561   2.996   0.750 -0.3769  0.1267 -0.1286
  303TIP3    H116576   5.626   3.036   0.691  0.7030 -0.1916  0.8214
  303TIP3    H216577   5.536   3.066   0.809 -1.4168  0.4278 -0.8854
  304TIP3   OH216578   4.458   1.118   7.565  0.2415  0.0281  0.3006
  304TIP3    H116579   4.459   1.065   7.485  0.1972  2.3145 -1.3103
  304TIP3    H216580   4.533   1.087   7.616  0.4217 -1.3156 -0.7223
  305TIP3   OH216581   6.194   3.962   6.803 -0.0256  0.0371 -0.1537
  305TIP3    H116582   6.127   4.029   6.792 -1.3507 -1.3576 -1.0206
  305TIP3    H216583   6.206   3.925   6.716  1.7045  0.0662  0.0384
  306TIP3   OH216584   1.692   0.571   6.390  0.5743 -0.4818  0.1344
  306TIP3    H116585   1.696   0.531   6.476  0.4749  0.1459  0.4366
  306TIP3    H216586   1.609   0.539   6.353 -0.8069  1.3967  1.3879
  307TIP3   OH216587   5.792   4.235   5.925  0.3699 -0.1438  0.2250
  307TIP3    H116588   5.741   4.307   5.961  0.4763  0.5864 -1.0483
  307TIP3    H216589   5.868   4.227   5.984  0.1159  0.4615  0.6371
  308TIP3   OH216590   3.986   1.712   7.264  0.1917 -0.5963 -0.1040
  308TIP3    H116591   4.013   1.795   7.224  1.4877 -0.5991  0.7264
  308TIP3    H216592   4.015   1.718   7.355  1.1845 -2.3338 -0.2622
  309TIP3   OH216593   1.050   2.510   6.659  0.3825  0.0203 -0.5665
  309TIP3    H116594   1.083   2.438   6.606  0.9082  0.7443 -1.2416
  309TIP3    H216595   1.123   2.572   6.663  0.0420  0.3830  0.2588
  310TIP3   OH216596   1.020   6.229   1.583  0.4534  0.3275 -1.0222
  310TIP3    H116597   0.951   6.167   1.557 -0.2138  0.0801  1.1824
  310TIP3    H216598   1.015   6.299   1.517 -2.3587  0.6292 -0.6114
  311TIP3   OH216599   5.371   1.925   7.251  0.4056  0.2584 -0.1918
  311TIP3    H116600   5.399   1.950   7.339  0.1672 -0.5449  0.1240
  311TIP3    H216601   5.366   1.830   7.254  1.4862  0.1353 -1.4121
  312TIP3   OH216602   6.283   1.484   6.897  0.4146  0.4262  0.3772
  312TIP3    H116603   6.316   1.514   6.812  0.0146  1.2266  0.4941
  312TIP3    H216604   6.216   1.548   6.921 -1.9138 -1.6498 -0.2600
  313TIP3   OH216605   5.237   1.695   7.399  0.8661 -0.3624  0.4912
  313TIP3    H116606   5.165   1.750   7.369  0.2093 -1.3576  0.2188
  313TIP3    H216607   5.240   1.622   7.337  0.7685 -1.4113  1.6762
  314TIP3   OH216608   2.948   2.742   1.842 -0.0999 -0.0361 -0.3343
  314TIP3    H116609   2.947   2.816   1.903  0.9099  0.0355 -0.3753
  314TIP3    H216610   2.982   2.779   1.761  0.1172 -0.4780 -0.4452
  315TIP3   OH216611   5.893   0.402   0.004 -0.1713 -0.3105 -1.0679
  315TIP3    H116612   5.935   0.345  -0.060 -0.3104  0.3140 -1.7192
  315TIP3    H216613   5.854   0.472  -0.047 -1.1129 -0.3137 -0.3824
  316TIP3   OH216614   4.582   4.318   0.051 -0.4089  0.2887 -0.4215
  316TIP3    H116615   4.553   4.291   0.138 -0.1744 -0.2679 -0.5077
  316TIP3    H216616   4.663   4.366   0.066  0.0414 -0.4616 -0.3816
  317TIP3   OH216617   1.349   4.614   1.425  0.4890 -0.4247  0.2616
  317TIP3    H116618   1.369   4.575   1.340  0.2814  0.7062 -0.3209
  317TIP3    H216619   1.262   4.580   1.447  0.8655 -1.3293  0.4032
  318TIP3   OH216620   3.853   1.239   5.594 -0.2078  0.2770  0.0105
  318TIP3    H116621   3.913   1.262   5.522 -0.1562  1.2465  0.3487
  318TIP3    H216622   3.854   1.315   5.651 -4.2866  1.8083 -1.5846
  319TIP3   OH216623   5.669   1.136   7.247 -0.2805  0.0161 -0.7434
  319TIP3    H116624   5.752   1.158   7.204 -0.8488  1.2732 -1.2621
  319TIP3    H216625   5.688   1.140   7.340  0.4892 -0.7643 -0.8511
  320TIP3   OH216626   3.132   2.682   0.244  0.5973  0.2784  0.2435
  320TIP3    H116627   3.187   2.708   0.318  1.1801 -1.2862  0.3940
  320TIP3    H216628   3.192   2.672   0.171  0.2893  0.0870  0.0152
  321TIP3   OH216629   5.796   2.372   1.712  0.5083 -0.6775 -0.4467
  321TIP3    H116630   5.740   2.315   1.764  2.2329 -0.0160  2.3607
  321TIP3    H216631   5.736   2.437   1.675 -0.8677 -1.5161  0.2323
  322TIP3   OH216632   4.602   5.765   1.239 -0.2948 -0.1633  0.1173
  322TIP3    H116633   4.564   5.684   1.207  2.1787 -1.1862 -0.5100
  322TIP3    H216634   4.660   5.738   1.311 -0.0050  1.1342  0.4128
  323TIP3   OH216635   2.917   1.370   7.553 -0.1932  0.3104 -0.9287
  323TIP3    H116636   3.009   1.360   7.527  0.2288  0.2585  0.4793
  323TIP3    H216637   2.868   1.359   7.472  0.9712 -1.0843 -1.4991
  324TIP3   OH216638   1.502   3.430   1.004 -0.0066  0.7787  0.5064
  324TIP3    H116639   1.491   3.339   0.976 -1.3754  1.3552 -0.9975
  324TIP3    H216640   1.525   3.423   1.097  2.2019 -1.1422 -0.0648
  325TIP3   OH216641   2.465   4.771   6.752  0.2306  0.6338  0.2570
  325TIP3    H116642   2.558   4.752   6.770  0.6648 -0.4405 -2.6580
  325TIP3    H216643   2.463   4.795   6.659 -2.6774 -1.2365 -0.2645
  326TIP3   OH216644   0.709   0.196   1.749 -0.5148  0.5309 -0.9175
  326TIP3    H116645   0.696   0.132   1.818 -0.4458  1.5538  0.0753
  326TIP3    H216646   0.658   0.163   1.675 -0.2249 -0.8030 -0.5353
  327TIP3   OH216647   0.838   0.545   1.985  0.2461  0.4110  0.0033
  327TIP3    H116648   0.780   0.486   2.032 -1.7473  2.1665 -0.1400
  327TIP3    H216649   0.894   0.583   2.052  0.6498 -0.6004  0.2636
  328TIP3   OH216650   3.947   2.807   0.611 -0.0158 -0.5887  0.1371
  328TIP3    H116651   3.994   2.733   0.648  1.4022 -0.3282 -1.0409
  328TIP3    H216652   3.936   2.784   0.518 -0.4193  0.2564 -0.0348
  329TIP3   OH216653   5.044   1.022   1.941 -0.0927 -0.4103 -0.4923
  329TIP3    H116654   5.099   0.947   1.962  1.6977  1.2645  1.1540
  329TIP3    H216655   5.020   1.059   2.026 -2.7394 -0.2943 -1.1915
  330TIP3   OH216656   4.970   2.462   0.574 -0.0404  0.0670 -0.0460
  330TIP3    H116657   4.947   2.503   0.491 -0.1325 -0.0117 -0.0596
  330TIP3    H216658   4.887   2.452   0.621 -0.1198 -0.7481 -0.3440
  331TIP3   OH216659   3.333   0.421   0.528 -0.0597  0.0716 -0.0993
  331TIP3    H116660   3.288   0.440   0.446 -0.9189 -0.7526  0.1607
  331TIP3    H216661   3.321   0.326   0.541 -1.0643  0.3880  1.6077
  332TIP3   OH216662   4.563   2.009   6.528 -0.0854 -0.5594 -0.4276
  332TIP3    H116663   4.622   1.960   6.469  0.0550  0.5755 -1.2569
  332TIP3    H216664   4.621   2.042   6.597 -0.1209 -1.2258 -0.0653
  333TIP3   OH216665   4.067   6.295   1.160  0.3096  0.0138 -0.7568
  333TIP3    H116666   3.990   6.330   1.114  1.2691  0.5510 -1.9992
  333TIP3    H216667   4.077   6.207   1.126 -0.8580 -0.7931  0.8323
  334TIP3   OH216668   1.833   5.473   1.141  0.0616  0.4463 -0.0004
  334TIP3    H116669   1.755   5.417   1.145  0.5837 -0.2277  1.5704
  334TIP3    H216670   1.903   5.414   1.113  0.4405  0.4778  0.8250
  335TIP3   OH216671   1.155   0.721   6.618  0.1597  0.0142 -0.4004
  335TIP3    H116672   1.156   0.688   6.708 -0.6118 -0.2538 -0.4820
  335TIP3    H216673   1.214   0.797   6.620  1.0617 -0.6804  0.0540
  336TIP3   OH216674   4.538   0.309   1.039 -0.1501 -0.1522 -0.1186
  336TIP3    H116675   4.596   0.263   0.979  0.6352  1.1354 -0.3843
  336TIP3    H216676   4.556   0.270   1.125  0.8804 -0.0073 -0.2559
  337TIP3   OH216677   2.884   5.919   0.798  0.1692 -0.3171  0.6009
  337TIP3    H116678   2.793   5.915   0.766 -0.5258  0.6709  2.3080
  337TIP3    H216679   2.883   5.990   0.861  1.6788 -1.5666  2.0980
  338TIP3   OH216680   1.111   0.104   0.375  0.2905 -0.1214  0.2731
  338TIP3    H116681   1.070   0.026   0.339 -1.0800  0.7734 -0.2071
  338TIP3    H216682   1.190   0.117   0.323 -0.4829 -0.1211 -0.9411
  339TIP3   OH216683   5.158   5.500   7.136 -0.1338  0.4290  0.3239
  339TIP3    H116684   5.149   5.464   7.225 -1.1654  1.6439  0.7414
  339TIP3    H216685   5.250   5.486   7.115 -0.0776 -0.7510  1.1906
  340TIP3   OH216686   1.432   2.396   7.134 -0.2493 -0.2239 -0.0117
  340TIP3    H116687   1.339   2.375   7.140 -0.2356 -0.6979 -1.3464
  340TIP3    H216688   1.434   2.492   7.127 -0.6710 -0.2486 -0.5410
  341TIP3   OH216689   1.623   5.768   0.416  0.6390 -0.3221  0.1666
  341TIP3    H116690   1.558   5.802   0.477 -0.9816  0.0593 -1.6676
  341TIP3    H216691   1.653   5.845   0.367  0.4449 -0.8687 -0.8433
  342TIP3   OH216692   0.719   4.013   0.801  0.0493 -0.6375  0.1183
  342TIP3    H116693   0.713   4.108   0.801 -2.6467 -0.7075  0.3899
  342TIP3    H216694   0.795   3.993   0.748  0.0090  1.6517 -0.9040
  343TIP3   OH216695   5.768   0.743   1.410 -0.3703 -0.0920  0.0374
  343TIP3    H116696   5.861   0.722   1.401 -0.3362 -0.3455  0.9411
  343TIP3    H216697   5.765   0.839   1.415  0.1041 -0.1660  2.6716
  344TIP3   OH216698   4.881   1.065   7.683  0.0957  0.1022 -0.0004
  344TIP3    H116699   4.947   1.028   7.624 -1.5518 -1.2438 -1.0970
  344TIP3    H216700   4.828   1.122   7.628 -0.9025 -0.4496  0.3558
  345TIP3   OH216701   4.873   4.760   0.258  0.5415 -0.1093 -0.4197
  345TIP3    H116702   4.824   4.734   0.335  1.5984 -3.7600 -0.8083
  345TIP3    H216703   4.965   4.746   0.282  0.9923  0.3427 -1.7724
  346TIP3   OH216704   4.587   5.476   6.986  0.1187  0.5688 -0.2354
  346TIP3    H116705   4.514   5.491   6.926 -0.7758 -0.3041  0.5851
  346TIP3    H216706   4.571   5.388   7.020  0.8462  0.8710  0.9226
  347TIP3   OH216707   3.802   0.640   6.393  0.2218 -0.3779 -0.3408
  347TIP3    H116708   3.793   0.609   6.303  1.5231 -1.6132 -0.0939
  347TIP3    H216709   3.736   0.708   6.403 -0.3815 -0.6900 -2.0218
  348TIP3   OH216710   0.732   2.389   5.719  0.3968  0.1581  0.2513
  348TIP3    H116711   0.803   2.435   5.763  0.3694 -0.0993  0.5711
  348TIP3    H216712   0.670   2.458   5.695  2.2133  0.8903 -3.0019
  349TIP3   OH216713   2.133   1.038   0.588  0.4923  0.3169 -0.0268
  349TIP3    H116714   2.181   1.060   0.668 -0.6400 -1.5368  1.2348
  349TIP3    H216715   2.201   1.007   0.528  1.1367 -0.4709  1.0546
  350TIP3   OH216716   5.144   2.616   7.255  0.3228 -0.4858  0.1338
  350TIP3    H116717   5.225   2.661   7.276  0.0999  1.6132 -2.7979
  350TIP3    H216718   5.075   2.674   7.287  0.0222 -0.1879 -1.0103
  351TIP3   OH216719   3.534   1.947   6.393 -0.2709  0.3406  0.3168
  351TIP3    H116720   3.614   1.953   6.341 -0.4662  0.5136  0.0326
  351TIP3    H216721   3.473   2.009   6.352 -0.5736  0.1622  0.4890
  352TIP3   OH216722   4.816   4.115   0.211 -0.5642  0.0425  0.6231
  352TIP3    H116723   4.726   4.121   0.244 -0.3882 -1.7258  1.5692
  352TIP3    H216724   4.870   4.158   0.277 -0.8134  3.1131 -0.9741
  353TIP3   OH216725   0.360   3.244   7.506 -0.0990 -0.4522  0.8793
  353TIP3    H116726   0.348   3.304   7.432  0.3882 -2.5260 -0.9800
  353TIP3    H216727   0.452   3.253   7.530 -0.1220 -0.1657  0.8564
  354TIP3   OH216728   5.524   0.580   1.190 -0.4509 -0.0011 -0.0629
  354TIP3    H116729   5.562   0.524   1.259 -1.3927  0.6588  1.0262
  354TIP3    H216730   5.437   0.542   1.175 -1.0531  1.0760  0.6048
  355TIP3   OH216731   2.194   1.941   6.709  0.9836  0.0303 -0.0101
  355TIP3    H116732   2.129   1.931   6.639  0.2680 -0.0677  0.6529
  355TIP3    H216733   2.240   1.857   6.711 -0.5276 -0.8361  1.1187
  356TIP3   OH216734   1.297   0.513   2.869 -0.7679  0.2186 -0.2843
  356TIP3    H116735   1.253   0.429   2.877 -1.0782  0.2814 -1.2359
  356TIP3    H216736   1.320   0.537   2.959 -0.3973 -1.0177 -0.0365
  357TIP3   OH216737   3.749   0.365   0.775  0.9477  1.0907  0.4257
  357TIP3    H116738   3.807   0.292   0.756 -0.1806  0.3674 -0.3056
  357TIP3    H216739   3.808   0.441   0.781  2.1793  0.0806  1.6292
  358TIP3   OH216740   3.719   0.255   6.146  0.2812 -0.0839  0.0146
  358TIP3    H116741   3.690   0.170   6.178 -0.5208  1.2548  3.2346
  358TIP3    H216742   3.641   0.310   6.152  1.3228  1.4180  0.2506
  359TIP3   OH216743   5.254   0.535   1.123 -0.5951  0.3068  0.6079
  359TIP3    H116744   5.180   0.596   1.114  0.2462  1.2125 -0.4562
  359TIP3    H216745   5.234   0.464   1.061 -0.3600  0.7832 -0.0217
  360TIP3   OH216746   1.353   2.954   6.724 -0.0614  0.6434  0.8304
  360TIP3    H116747   1.448   2.950   6.738  0.1565 -0.1551 -0.6270
  360TIP3    H216748   1.338   3.042   6.690  0.7370 -0.2332 -2.1654
  361TIP3   OH216749   3.146   5.314   1.004 -0.4563 -0.5845  0.0828
  361TIP3    H116750   3.220   5.354   0.959 -0.7561  0.4878  0.5146
  361TIP3    H216751   3.136   5.228   0.963  3.2953 -2.3797  2.3646
  362TIP3   OH216752   0.976   5.165   5.781  0.0745 -0.1117 -0.4258
  362TIP3    H116753   0.964   5.084   5.831  1.0696  0.4151  0.6979
  362TIP3    H216754   1.019   5.137   5.700  0.9047 -0.6513  0.1913
  363TIP3   OH216755   2.359   3.223   0.326 -0.2573 -0.3057 -0.1015
  363TIP3    H116756   2.384   3.314   0.307  0.3211 -0.5274 -0.4238
  363TIP3    H216757   2.362   3.217   0.421  0.0597 -0.0866 -0.0968
  364TIP3   OH216758   3.119   2.790   6.294 -0.2809 -0.2724  0.2910
  364TIP3    H116759   3.164   2.752   6.218  1.4948 -0.7512  1.5102
  364TIP3    H216760   3.147   2.736   6.367 -1.0941  0.8328  1.4562
  365TIP3   OH216761   2.233   1.301   2.351 -0.2340 -0.7887 -0.3915
  365TIP3    H116762   2.310   1.326   2.300 -0.9938 -0.2174 -1.3045
  365TIP3    H216763   2.268   1.263   2.431  1.0144  0.6544 -0.1991
  366TIP3   OH216764   2.424   5.151   6.409  0.2068  0.0217  0.4042
  366TIP3    H116765   2.450   5.082   6.471  0.5787  1.8730  2.4499
  366TIP3    H216766   2.503   5.203   6.397 -0.5538  1.2426  0.5211
  367TIP3   OH216767   6.259   5.515   0.459  0.2879  0.1442  0.3338
  367TIP3    H116768   6.306   5.538   0.540  0.4708 -0.1252  0.3072
  367TIP3    H216769   6.301   5.434   0.430  0.0025  0.0648  0.1443
  368TIP3   OH216770   2.367   4.057   7.642  0.3241  0.1892  0.5138
  368TIP3    H116771   2.341   4.133   7.693  0.2665  1.1516 -0.8979
  368TIP3    H216772   2.285   4.009   7.626  0.1297  0.6344  0.1548
  369TIP3   OH216773   3.342   6.043   7.416 -0.0531  0.8162  0.2356
  369TIP3    H116774   3.379   6.123   7.379  2.1611  0.2990  1.1392
  369TIP3    H216775   3.329   6.063   7.509 -0.6162  0.5089  0.2248
  370TIP3   OH216776   1.940   3.204   7.023 -0.0880  0.0021  0.7077
  370TIP3    H116777   2.035   3.203   7.034 -0.3033 -0.1241  2.8156
  370TIP3    H216778   1.914   3.112   7.026 -0.5136  0.1465  2.9078
  371TIP3   OH216779   1.195   5.915   1.396 -0.3776  0.0455  0.0331
  371TIP3    H116780   1.157   5.995   1.359  0.4013  0.0690 -0.7400
  371TIP3    H216781   1.242   5.944   1.474  1.3448  0.6261 -1.1834
  372TIP3   OH216782   5.846   2.180   1.342 -0.3611  0.0596 -0.5887
  372TIP3    H116783   5.924   2.130   1.317 -0.7705 -0.7886 -0.2088
  372TIP3    H216784   5.773   2.121   1.325 -0.8203  0.3025  0.4420
  373TIP3   OH216785   1.456   1.831   2.415 -0.2150  0.1593  0.4582
  373TIP3    H116786   1.417   1.907   2.372  2.6748  2.8629  2.2382
  373TIP3    H216787   1.393   1.807   2.483 -0.4335  2.1517  1.0117
  374TIP3   OH216788   4.086   3.347   2.622  0.0359  0.4073 -0.2119
  374TIP3    H116789   4.182   3.343   2.614  0.0157  1.6930 -1.5312
  374TIP3    H216790   4.055   3.354   2.532 -1.3785 -0.9282  0.1505
  375TIP3   OH216791   0.579   4.624   7.165  0.2483  0.7028 -0.0345
  375TIP3    H116792   0.537   4.694   7.116  1.9217  1.3733 -0.5817
  375TIP3    H216793   0.649   4.592   7.107  2.4916  1.7258  1.9331
  376TIP3   OH216794   2.110   0.387   0.748  0.1846 -0.5448 -0.7069
  376TIP3    H116795   2.141   0.474   0.772 -0.2589 -0.3934 -0.6677
  376TIP3    H216796   2.026   0.378   0.793  0.1130 -0.8951 -0.9045
  377TIP3   OH216797   5.328   3.193   6.723  0.3585  0.1162  0.0778
  377TIP3    H116798   5.375   3.266   6.683  2.1784 -1.5206 -0.9186
  377TIP3    H216799   5.247   3.185   6.672  0.3771  1.1087 -0.1181
  378TIP3   OH216800   5.565   3.828   1.749 -0.2904 -0.0493  0.2258
  378TIP3    H116801   5.661   3.828   1.749  0.0269 -3.8866  4.1152
  378TIP3    H216802   5.541   3.879   1.826 -1.4772  1.3614 -1.0330
  379TIP3   OH216803   1.091   1.694   6.909  0.0494 -0.2550  0.3253
  379TIP3    H116804   1.001   1.681   6.880  0.5217 -0.5798 -1.0767
  379TIP3    H216805   1.085   1.760   6.978 -1.0737  1.1001 -1.0018
  380TIP3   OH216806   5.970   0.485   0.860  0.0515 -0.3104  0.3627
  380TIP3    H116807   5.953   0.393   0.843  1.1434 -0.7341  1.4330
  380TIP3    H216808   5.932   0.531   0.785 -0.2919 -1.6337 -0.2967
  381TIP3   OH216809   0.916   2.676   6.883 -0.1152  0.0831  0.0361
  381TIP3    H116810   0.949   2.746   6.827  1.1328 -0.3205  0.2186
  381TIP3    H216811   0.938   2.596   6.837 -0.2442 -0.2207  0.4946
  382TIP3   OH216812   3.906   2.897   6.733 -0.2281 -0.6354 -0.6352
  382TIP3    H116813   3.953   2.967   6.687  1.7272 -0.5438  1.3158
  382TIP3    H216814   3.880   2.936   6.817 -1.2826 -1.5621 -0.5051
  383TIP3   OH216815   1.933   0.467   7.051 -0.3381 -0.5291  0.0015
  383TIP3    H116816   1.999   0.510   6.996  0.6281 -2.5371 -0.4962
  383TIP3    H216817   1.869   0.433   6.988 -0.7350 -0.4335  0.3481
  384TIP3   OH216818   6.206   3.382   6.044 -0.9657 -0.2201  0.4843
  384TIP3    H116819   6.132   3.416   6.093 -1.2041 -0.2342  0.1381
  384TIP3    H216820   6.213   3.440   5.968 -0.5452 -0.1412  0.5767
  385TIP3   OH216821   1.555   4.765   2.885 -0.3111  0.1571  0.2691
  385TIP3    H116822   1.594   4.689   2.843 -0.0800  2.0783 -3.3974
  385TIP3    H216823   1.616   4.789   2.954 -0.0057 -2.4113  1.0042
  386TIP3   OH216824   3.793   4.395   2.203  0.4153  0.2105  0.1042
  386TIP3    H116825   3.819   4.303   2.208 -0.0331  0.0361 -0.6098
  386TIP3    H216826   3.702   4.393   2.173 -0.0764  0.8521  1.4880
  387TIP3   OH216827   3.168   1.497   2.161 -1.0333  0.1508 -0.0475
  387TIP3    H116828   3.230   1.548   2.108 -0.9269  1.9722  1.7015
  387TIP3    H216829   3.085   1.545   2.153 -1.2225 -0.0421  0.7173
  388TIP3   OH216830   2.135   2.704   1.133  0.5411  0.1637 -0.3154
  388TIP3    H116831   2.187   2.780   1.156 -0.3497  0.7991 -0.3449
  388TIP3    H216832   2.196   2.644   1.091  1.1810  1.0136 -0.6208
  389TIP3   OH216833   6.153   3.251   1.872  0.3647 -0.3192  0.0941
  389TIP3    H116834   6.184   3.177   1.923  0.6774 -0.0857  0.2492
  389TIP3    H216835   6.217   3.261   1.802  0.6499  0.1654  0.4152
  390TIP3   OH216836   5.559   5.660   7.599  0.6067 -0.6543 -0.0865
  390TIP3    H116837   5.646   5.643   7.563  0.8479  0.2484  0.0558
  390TIP3    H216838   5.568   5.645   7.693  0.6190 -0.5095 -0.0649
  391TIP3   OH216839   1.044   0.290   1.090  0.0900  0.2136 -0.3997
  391TIP3    H116840   1.036   0.321   1.000  0.1915 -0.4361 -0.6368
  391TIP3    H216841   1.092   0.360   1.136 -1.0255  1.1022 -0.5508
  392TIP3   OH216842   1.983   0.989   7.274 -0.6261 -0.2335 -0.0462
  392TIP3    H116843   2.001   0.903   7.312 -0.1728 -0.2889 -0.3871
  392TIP3    H216844   2.010   1.051   7.342  1.4468 -0.2884 -0.7563
  393TIP3   OH216845   6.214   5.113   0.945  0.6383  0.1822 -0.2084
  393TIP3    H116846   6.232   5.127   1.038 -0.5414  2.2456 -0.2293
  393TIP3    H216847   6.279   5.168   0.900  1.1848 -0.7819 -0.6426
  394TIP3   OH216848   1.325   5.247   1.280 -0.4238 -0.1358  0.2906
  394TIP3    H116849   1.250   5.207   1.323  0.9448 -2.4585  0.6956
  394TIP3    H216850   1.288   5.292   1.204 -2.1695 -1.8186  0.0689
  395TIP3   OH216851   6.097   6.139   2.561 -0.0504  0.1209 -0.2425
  395TIP3    H116852   6.011   6.104   2.535  0.1904  1.5009 -3.2803
  395TIP3    H216853   6.160   6.077   2.526  0.2464  0.3623 -0.1380
  396TIP3   OH216854   4.340   0.145   0.497 -0.1343 -0.0061 -0.0070
  396TIP3    H116855   4.330   0.061   0.542 -2.9670  0.9146  1.3370
  396TIP3    H216856   4.432   0.148   0.471  0.8669 -2.0720  2.8345
  397TIP3   OH216857   0.546   2.257   0.499  0.4590  0.1638  0.1562
  397TIP3    H116858   0.452   2.247   0.490  0.5422 -0.1467 -0.4670
  397TIP3    H216859   0.560   2.352   0.500 -0.1134  0.3291  3.5270
  398TIP3   OH216860   6.091   3.650   7.124 -0.2726  0.8206 -0.0802
  398TIP3    H116861   6.153   3.672   7.054  0.6377  0.2796  0.5294
  398TIP3    H216862   6.077   3.732   7.170  1.2706  0.6496  0.7562
  399TIP3   OH216863   2.443   2.260   1.863  0.2824 -0.3266 -0.3222
  399TIP3    H116864   2.399   2.176   1.854  1.7906 -1.5063  2.2901
  399TIP3    H216865   2.382   2.315   1.912  0.8700 -1.3250  1.6039
  400TIP3   OH216866   2.906   5.606   7.133  0.4481  0.5634 -0.2788
  400TIP3    H116867   2.826   5.555   7.145 -0.4900  1.6515 -1.6041
  400TIP3    H216868   2.913   5.657   7.214  0.4124 -0.3147  0.2965
  401TIP3   OH216869   5.092   3.254   0.104  0.1430 -0.3213  0.1517
  401TIP3    H116870   5.012   3.247   0.050 -0.4958  0.5775  0.9499
  401TIP3    H216871   5.060   3.253   0.194  0.9220  1.2819  0.4700
  402TIP3   OH216872   4.979   1.859   0.565  0.5905 -0.1706 -0.1312
  402TIP3    H116873   4.965   1.767   0.543  1.5020 -0.4826  0.5255
  402TIP3    H216874   4.993   1.859   0.659  0.9134  0.6092 -0.1741
  403TIP3   OH216875   3.460   5.469   1.595  0.2443  0.3710 -0.5743
  403TIP3    H116876   3.405   5.459   1.517 -1.6597 -0.3230  0.7699
  403TIP3    H216877   3.445   5.389   1.645  0.1096  1.5025  1.2755
  404TIP3   OH216878   5.345   4.469   6.825 -0.4711 -0.3482 -0.3437
  404TIP3    H116879   5.347   4.374   6.813  1.6396 -0.6266  1.4999
  404TIP3    H216880   5.369   4.482   6.917  0.4157  1.9866 -0.8280
  405TIP3   OH216881   1.900   0.530   2.545 -0.1502  0.0153  0.3813
  405TIP3    H116882   1.813   0.492   2.555 -0.9607  1.7405  0.1872
  405TIP3    H216883   1.958   0.467   2.589 -1.6274 -0.5672  1.6046
  406TIP3   OH216884   2.485   1.950   6.993  0.9052  0.5866  0.2293
  406TIP3    H116885   2.532   1.886   7.047  0.4186 -0.0481 -0.0990
  406TIP3    H216886   2.423   1.991   7.053 -1.0875 -1.5486 -0.2395
  407TIP3   OH216887   3.588   5.060   1.491 -0.0652 -0.0280 -0.3849
  407TIP3    H116888   3.643   5.076   1.414  0.1109 -1.1541 -0.5119
  407TIP3    H216889   3.506   5.106   1.472 -0.0211 -0.2913 -1.2413
  408TIP3   OH216890   2.355   0.760   1.830 -0.0440  0.3096  0.2352
  408TIP3    H116891   2.438   0.715   1.814 -0.2028  0.1991 -0.3142
  408TIP3    H216892   2.302   0.740   1.753 -1.7087 -2.1205  1.8905
  409TIP3   OH216893   5.421   2.692   7.399 -0.4154  0.5600  0.4491
  409TIP3    H116894   5.507   2.665   7.367 -0.1570 -0.7913  2.1055
  409TIP3    H216895   5.421   2.787   7.389  1.7435  0.7425  1.3767
  410TIP3   OH216896   1.688   4.469   1.358 -0.5523  0.2298 -0.4526
  410TIP3    H116897   1.703   4.374   1.362  0.5169  0.4247  1.7713
  410TIP3    H216898   1.772   4.505   1.329  0.4717  0.7053  2.7702
  411TIP3   OH216899   3.843   3.771   0.074 -0.3887  0.0090 -0.5990
  411TIP3    H116900   3.764   3.761   0.021 -0.2375  1.4680 -1.1304
  411TIP3    H216901   3.878   3.682   0.082 -2.0145 -0.6435 -0.4371
  412TIP3   OH216902   0.313   3.910   1.018 -0.1084 -0.2019  0.4836
  412TIP3    H116903   0.376   3.981   1.014 -0.3885  0.0561  0.6427
  412TIP3    H216904   0.290   3.902   1.110  0.1141 -0.6677  0.5002
  413TIP3   OH216905   6.295   3.560   1.488  0.2852  0.0260  0.3951
  413TIP3    H116906   6.283   3.544   1.394  1.7919  0.8348  0.0358
  413TIP3    H216907   6.388   3.578   1.498  0.3146 -0.8669  2.1945
  414TIP3   OH216908   3.885   0.487   0.065 -0.5023 -0.2076 -0.5457
  414TIP3    H116909   3.932   0.407   0.087 -0.1820 -0.2873 -1.5089
  414TIP3    H216910   3.821   0.496   0.136  0.1156 -0.7687  0.1082
  415TIP3   OH216911   3.926   4.711   1.828 -1.1739  0.3142  0.2950
  415TIP3    H116912   3.851   4.695   1.885 -0.7067  0.8898  1.0927
  415TIP3    H216913   3.896   4.776   1.764 -2.3394 -1.8134 -1.4631
  416TIP3   OH216914   0.834   2.171   1.104 -0.3586 -0.0433  0.2733
  416TIP3    H116915   0.825   2.169   1.199 -0.6261 -0.4089  0.2413
  416TIP3    H216916   0.751   2.207   1.072  0.0788  0.9801  0.2188
  417TIP3   OH216917   1.167   4.122   1.316 -0.0425 -0.2017  0.2261
  417TIP3    H116918   1.121   4.053   1.268 -0.9685  0.1814  0.5414
  417TIP3    H216919   1.117   4.202   1.297  0.1793  0.1341  0.9993
  418TIP3   OH216920   0.588   3.296   1.964 -0.1409 -0.0501  0.1236
  418TIP3    H116921   0.661   3.261   2.015  0.3849 -0.4667 -0.8932
  418TIP3    H216922   0.518   3.308   2.028  0.3694 -0.9341  0.8696
  419TIP3   OH216923   4.946   2.924   6.376  0.0557 -0.4742  0.3854
  419TIP3    H116924   4.904   2.838   6.375 -2.0815  0.3606  3.3114
  419TIP3    H216925   4.877   2.984   6.348  0.8769  0.4910  0.3772
  420TIP3   OH216926   0.961   0.783   7.098  0.0836 -0.6356  0.0462
  420TIP3    H116927   0.919   0.731   7.030 -1.5702 -1.1395  1.3966
  420TIP3    H216928   0.898   0.852   7.118  2.3136  2.2492 -1.8917
  421TIP3   OH216929   4.728   0.699   0.409  0.1929 -0.0910 -0.0273
  421TIP3    H116930   4.663   0.767   0.389 -1.4602 -1.5961 -0.0786
  421TIP3    H216931   4.677   0.618   0.410  2.0881 -1.3312  0.0740
  422TIP3   OH216932   5.503   4.291   1.072  0.4770 -0.3479  0.3553
  422TIP3    H116933   5.426   4.280   1.016  0.6951 -0.0044 -0.0139
  422TIP3    H216934   5.468   4.327   1.154  0.5307  2.5705 -0.7769
  423TIP3   OH216935   1.510   2.166   7.721 -0.0828 -0.4830 -0.4871
  423TIP3    H116936   1.537   2.173   7.629 -1.1855 -0.6217 -0.8374
  423TIP3    H216937   1.441   2.099   7.720 -0.0761 -0.5068  0.4507
  424TIP3   OH216938   1.594   2.927   1.026 -0.1099  0.2470 -0.3920
  424TIP3    H116939   1.583   2.930   0.931  0.4427  0.2584 -0.4552
  424TIP3    H216940   1.687   2.909   1.040  0.0487  1.3829  0.1584
  425TIP3   OH216941   3.440   5.605   6.418 -0.1233  0.3337 -0.5297
  425TIP3    H116942   3.495   5.553   6.476  0.1032 -1.0926 -1.9560
  425TIP3    H216943   3.501   5.652   6.362 -0.3494  1.1160 -0.1425
  426TIP3   OH216944   6.299   0.218   1.798  0.2830 -0.0559 -0.4829
  426TIP3    H116945   6.323   0.137   1.751 -0.4459 -0.3280 -0.3991
  426TIP3    H216946   6.252   0.270   1.733 -1.5773 -0.8372  0.1539
  427TIP3   OH216947   5.778   5.115   0.533 -0.0758 -0.1146  0.5020
  427TIP3    H116948   5.834   5.192   0.545  0.8771 -0.8750  1.1027
  427TIP3    H216949   5.805   5.055   0.602  0.1565 -1.5510 -0.7809
  428TIP3   OH216950   2.296   3.439   1.851 -0.3467  0.1195  0.2801
  428TIP3    H116951   2.230   3.408   1.788 -1.7513  1.8506  0.7845
  428TIP3    H216952   2.332   3.360   1.889 -0.5600 -0.9442 -1.5989
  429TIP3   OH216953   2.632   4.490   1.477  0.2987  0.3153  0.1657
  429TIP3    H116954   2.645   4.584   1.460 -0.6818  0.5767  0.7526
  429TIP3    H216955   2.703   4.466   1.537  0.7660  0.5986 -0.2740
  430TIP3   OH216956   1.269   5.531   7.408 -0.2769 -0.8609  0.4958
  430TIP3    H116957   1.271   5.589   7.484 -1.4409 -3.8128  2.9682
  430TIP3    H216958   1.204   5.570   7.350  0.0849  1.0699  1.2962
  431TIP3   OH216959   6.081   2.217   7.074 -0.7611  0.4878  0.1045
  431TIP3    H116960   6.116   2.162   7.144  0.6412 -1.5819 -2.0601
  431TIP3    H216961   6.092   2.307   7.106  0.0387 -0.3481  2.3863
  432TIP3   OH216962   3.206   1.859   0.572  0.2530  0.4328 -0.4280
  432TIP3    H116963   3.198   1.953   0.556 -0.3688  0.5243  0.3383
  432TIP3    H216964   3.117   1.831   0.594  0.2651 -0.5123 -1.5188
  433TIP3   OH216965   2.054   0.989   2.553 -0.5092  0.2650 -0.2709
  433TIP3    H116966   2.040   0.906   2.599  2.1837 -0.8428 -1.2858
  433TIP3    H216967   2.126   1.031   2.601  0.8268  0.1208 -2.0645
  434TIP3   OH216968   5.034   2.919   0.442  0.0027  0.2571 -0.2172
  434TIP3    H116969   5.100   2.854   0.467  0.4579  0.3919 -1.0409
  434TIP3    H216970   5.009   2.894   0.353 -0.1095  0.9643 -0.3892
  435TIP3   OH216971   4.756   1.052   1.245 -0.5073 -0.2999 -0.4038
  435TIP3    H116972   4.817   1.027   1.176  0.7882  0.6069  0.3675
  435TIP3    H216973   4.794   1.131   1.283 -1.0570 -0.8991  1.5000
  436TIP3   OH216974   2.175   4.383   2.796 -0.6738  0.3967 -0.0387
  436TIP3    H116975   2.224   4.436   2.858  2.3827 -1.8242 -0.3346
  436TIP3    H216976   2.167   4.438   2.718 -0.1523  1.4397  0.6242
  437TIP3   OH216977   4.222   4.616   6.749 -0.0231 -0.2740 -1.2264
  437TIP3    H116978   4.139   4.584   6.712 -0.8278  1.1176 -0.7031
  437TIP3    H216979   4.253   4.544   6.804 -0.3979 -1.1659 -2.1297
  438TIP3   OH216980   4.185   4.956   0.640 -0.9951  0.1370 -0.1711
  438TIP3    H116981   4.183   4.861   0.656 -0.6178 -0.0043 -0.9057
  438TIP3    H216982   4.093   4.982   0.637 -1.1047 -0.2390 -0.1379
  439TIP3   OH216983   0.113   3.488   5.650  0.2212  0.0590  0.0421
  439TIP3    H116984   0.041   3.500   5.712  0.9349  3.3005  0.4201
  439TIP3    H216985   0.091   3.407   5.603 -1.1843 -1.6465  3.3206
  440TIP3   OH216986   5.025   2.328   2.076 -0.3022  0.0270  0.1701
  440TIP3    H116987   5.032   2.307   2.169 -0.4026 -0.2039  0.1267
  440TIP3    H216988   5.116   2.327   2.045 -0.3057 -0.3888  0.1624
  441TIP3   OH216989   1.569   4.590   7.588 -0.2305  0.1090  0.5982
  441TIP3    H116990   1.517   4.666   7.560  1.4021  0.3360 -2.1576
  441TIP3    H216991   1.593   4.546   7.506  3.0758 -0.5112  1.7545
  442TIP3   OH216992   3.304   0.424   7.323  0.2441 -0.0207 -0.6399
  442TIP3    H116993   3.361   0.444   7.249  1.0496  1.3146  0.3158
  442TIP3    H216994   3.341   0.472   7.397 -1.8993  0.6055  0.1113
  443TIP3   OH216995   6.198   6.300   2.761  0.0618 -0.9140 -0.3184
  443TIP3    H116996   6.180   6.229   2.700 -1.3077 -1.1264  0.3029
  443TIP3    H216997   6.112   6.337   2.781  0.6142 -0.0284  0.4960
  444TIP3   OH216998   3.086   3.705   2.027 -0.0733 -0.1858 -0.2610
  444TIP3    H116999   3.094   3.651   1.949 -2.9023  0.2316 -0.9110
  444TIP3    H217000   3.051   3.788   1.996 -0.2134  0.3817  1.3305
  445TIP3   OH217001   3.994   6.118   6.718 -0.0955  0.2847  0.8135
  445TIP3    H117002   4.027   6.029   6.732  0.9877  0.4237 -0.6806
  445TIP3    H217003   3.909   6.120   6.763 -0.3036 -1.6100  0.5552
  446TIP3   OH217004   0.473   1.642   0.099  0.0239  0.0021 -0.3351
  446TIP3    H117005   0.534   1.681   0.036  1.5228 -1.7326 -0.0415
  446TIP3    H217006   0.455   1.555   0.064 -0.4920 -0.3444  0.7488
  447TIP3   OH217007   3.192   5.973   0.477  0.0369  0.4397 -0.5914
  447TIP3    H117008   3.140   6.051   0.497  0.0913  0.3096  0.0877
  447TIP3    H217009   3.138   5.900   0.508  0.8069  0.3305  0.5176
  448TIP3   OH217010   2.224   3.378   7.154 -0.1650  0.2814 -0.2211
  448TIP3    H117011   2.180   3.327   7.086  2.1641 -1.8624 -0.2614
  448TIP3    H217012   2.215   3.469   7.127 -1.8975 -0.2896 -1.7529
  449TIP3   OH217013   4.249   3.903   1.783 -0.1002 -0.0435  0.5996
  449TIP3    H117014   4.232   3.896   1.877  1.2093  0.5138  0.8883
  449TIP3    H217015   4.339   3.872   1.772 -0.4420 -0.7040 -0.5707
  450TIP3   OH217016   3.671   2.129   0.881  0.2172 -0.4119 -0.7312
  450TIP3    H117017   3.756   2.100   0.914  0.9546  1.3818 -0.9518
  450TIP3    H217018   3.676   2.114   0.786  0.7395  0.7142 -0.8944
  451TIP3   OH217019   1.753   2.489   2.078  0.1222  0.2850 -0.6919
  451TIP3    H117020   1.812   2.559   2.105  0.0025 -0.4984  1.8545
  451TIP3    H217021   1.679   2.495   2.139 -0.5085 -1.2228 -1.2634
  452TIP3   OH217022   1.883   2.031   7.054 -0.2099 -0.1730 -0.1805
  452TIP3    H117023   1.916   1.941   7.056 -1.5407 -0.6712  0.1764
  452TIP3    H217024   1.938   2.075   6.989  1.9344 -0.6169  1.2379
  453TIP3   OH217025   1.518   0.593   7.131  0.1379  0.0800 -0.6552
  453TIP3    H117026   1.512   0.553   7.045 -1.0083  0.2902 -0.6943
  453TIP3    H217027   1.466   0.536   7.187 -1.1217  1.2255 -0.6118
  454TIP3   OH217028   3.245   2.957   7.283 -0.3015 -0.1308 -0.1545
  454TIP3    H117029   3.262   3.049   7.263 -0.3018 -0.2291 -0.6230
  454TIP3    H217030   3.214   2.957   7.374 -1.9511  0.5411 -0.6750
  455TIP3   OH217031   2.323   2.963   7.577 -0.2591  0.2142 -0.0284
  455TIP3    H117032   2.245   3.014   7.555 -0.6330  0.3251  1.4889
  455TIP3    H217033   2.300   2.873   7.553 -0.6916  0.3100  0.0098
  456TIP3   OH217034   0.517   6.039   0.550  0.2411  0.4994 -0.1754
  456TIP3    H117035   0.488   5.953   0.577  0.1913  0.1970 -1.1534
  456TIP3    H217036   0.569   6.072   0.624  1.9587 -1.1927 -0.5477
  457TIP3   OH217037   1.238   5.840   1.047 -0.0082 -0.2361  0.0389
  457TIP3    H117038   1.299   5.907   1.017  0.6388 -0.7800  0.1002
  457TIP3    H217039   1.266   5.823   1.137 -1.3596  0.7459  0.6717
  458TIP3   OH217040   2.842   6.119   2.259  0.3482  0.1836 -0.0339
  458TIP3    H117041   2.818   6.060   2.330  2.2784 -1.4566 -0.6264
  458TIP3    H217042   2.923   6.161   2.289  0.1087  0.9801 -0.4701
  459TIP3   OH217043   1.559   3.944   7.142  0.0010  0.2836 -0.8195
  459TIP3    H117044   1.565   3.849   7.145 -1.2733  0.2238  0.8819
  459TIP3    H217045   1.635   3.971   7.090 -0.2627 -1.7007 -2.3628
  460TIP3   OH217046   0.231   0.366   0.654 -0.1474 -0.0103  0.1146
  460TIP3    H117047   0.322   0.368   0.683  0.2895 -2.4153 -0.9104
  460TIP3    H217048   0.187   0.308   0.716 -0.7382  0.2129 -0.0860
  461TIP3   OH217049   3.541   4.783   1.428  0.1444  0.4462  0.1267
  461TIP3    H117050   3.479   4.766   1.499 -1.1363  2.7054 -0.3642
  461TIP3    H217051   3.571   4.873   1.443  1.1933  0.3446 -1.2081
  462TIP3   OH217052   4.423   6.223   2.436  0.3811 -0.2662 -0.3264
  462TIP3    H117053   4.467   6.169   2.501 -0.7197  0.5392  1.1478
  462TIP3    H217054   4.376   6.160   2.381 -0.8945 -0.8923  1.3688
  463TIP3   OH217055   4.215   1.803   1.564 -0.1667  0.4827 -0.5371
  463TIP3    H117056   4.130   1.772   1.534  0.0027  0.3772 -0.9104
  463TIP3    H217057   4.277   1.735   1.536  0.0365  0.5415 -0.2392
  464TIP3   OH217058   3.821   1.365   0.632  0.1568  0.0288  0.4126
  464TIP3    H117059   3.790   1.455   0.634 -1.4085 -0.4898  1.4479
  464TIP3    H217060   3.821   1.337   0.723  0.2791 -1.1299  0.0780
  465TIP3   OH217061   2.985   5.712   0.964  0.3998 -0.1852  0.1618
  465TIP3    H117062   2.952   5.643   0.907 -0.5242  0.4875 -0.1343
  465TIP3    H217063   2.987   5.790   0.909  1.6989 -0.0133  0.4142
  466TIP3   OH217064   1.858   1.457   1.267 -0.0533 -0.4015 -0.5105
  466TIP3    H117065   1.940   1.456   1.217  0.6853  0.7856  0.5954
  466TIP3    H217066   1.822   1.544   1.253 -0.7707 -0.6740 -0.4191
  467TIP3   OH217067   4.186   4.628   1.814 -0.1753  0.0532  0.6336
  467TIP3    H117068   4.181   4.580   1.897  0.4714 -0.2753  0.4924
  467TIP3    H217069   4.101   4.671   1.806  0.8964  3.0511  3.2055
  468TIP3   OH217070   6.173   0.143   6.355 -0.3137  0.4601  0.0477
  468TIP3    H117071   6.248   0.128   6.298 -0.0425  3.2828 -0.4548
  468TIP3    H217072   6.193   0.095   6.435  0.8055 -0.8921 -0.9954
  469TIP3   OH217073   0.189   0.801   5.569 -0.5305  1.0974 -0.2489
  469TIP3    H117074   0.266   0.751   5.542  0.0964  2.3710 -0.8950
  469TIP3    H217075   0.149   0.747   5.638  1.1625  0.6000  0.4123
  470TIP3   OH217076   5.284   5.404   0.836 -0.1457  0.1969  0.3782
  470TIP3    H117077   5.250   5.326   0.792  0.9201  0.7979 -1.6499
  470TIP3    H217078   5.211   5.434   0.891 -0.4768 -2.3450  1.4759
  471TIP3   OH217079   1.603   3.417   1.276 -0.0986 -0.2394 -0.6269
  471TIP3    H117080   1.672   3.354   1.295  0.4913  0.1089 -1.5919
  471TIP3    H217081   1.559   3.430   1.361 -1.2301 -3.0813 -0.6685
  472TIP3   OH217082   1.817   2.120   2.375 -0.1880  0.3490 -0.1029
  472TIP3    H117083   1.815   2.199   2.430 -1.5822  1.8024 -2.0691
  472TIP3    H217084   1.758   2.141   2.302  1.0293 -1.7366 -1.7894
  473TIP3   OH217085   0.754   2.727   0.419  0.0993  0.7442 -0.1520
  473TIP3    H117086   0.730   2.683   0.501 -0.1616  1.5253  0.2106
  473TIP3    H217087   0.692   2.694   0.355  0.3483  0.0714 -0.0572
  474TIP3   OH217088   4.898   1.632   1.016 -0.1755 -0.2107  0.5378
  474TIP3    H117089   4.851   1.561   1.060 -0.6049 -0.1883  0.1237
  474TIP3    H217090   4.925   1.691   1.086 -1.8282  0.4086  0.6793
  475TIP3   OH217091   2.873   2.190   6.439 -0.1451 -0.0018  0.7762
  475TIP3    H117092   2.805   2.251   6.471 -1.3610 -0.6836 -0.4092
  475TIP3    H217093   2.940   2.247   6.401 -1.4534  0.6449 -0.6911
  476TIP3   OH217094   5.031   2.667   1.135  0.5555  0.3209 -0.4252
  476TIP3    H117095   4.957   2.667   1.196  0.4247  1.1081 -0.5689
  476TIP3    H217096   5.005   2.607   1.065  0.6646 -0.5088  0.2374
  477TIP3   OH217097   3.163   6.071   7.112 -0.3400  0.2466  0.8120
  477TIP3    H117098   3.160   5.986   7.156 -0.2666  0.1947  0.7160
  477TIP3    H217099   3.192   6.132   7.180  0.2463  0.0841  0.7097
  478TIP3   OH217100   3.772   6.008   7.312  0.4553  0.3390  0.0039
  478TIP3    H117101   3.739   6.096   7.294  0.3528  0.1319 -0.8250
  478TIP3    H217102   3.705   5.949   7.278 -0.3405 -0.0891  2.1388
  479TIP3   OH217103   1.713   1.812   7.584  0.3317  0.6443 -0.6102
  479TIP3    H117104   1.698   1.884   7.523 -1.6653  1.5001  0.7875
  479TIP3    H217105   1.644   1.820   7.649  1.4321 -1.1703  0.9142
  480TIP3   OH217106   3.877   6.307   7.023  0.4560  0.1505  0.0451
  480TIP3    H117107   3.863   6.401   7.027  0.0637  0.0916  0.1414
  480TIP3    H217108   3.968   6.297   6.996  0.4537  0.5550 -0.1207
  481TIP3   OH217109   1.447   0.100   2.257  0.2284 -1.0353  0.1167
  481TIP3    H117110   1.463   0.164   2.327  0.7061 -1.1950  0.1562
  481TIP3    H217111   1.425   0.019   2.302 -3.0932 -0.2860  0.0849
  482TIP3   OH217112   2.678   4.351   1.958 -0.6207  0.2630  0.4054
  482TIP3    H117113   2.739   4.278   1.956 -1.7559 -0.7128 -0.8547
  482TIP3    H217114   2.705   4.404   2.033  0.7584 -0.9760  0.8204
  483TIP3   OH217115   3.689   3.849   6.773  0.0987  0.5902 -0.2120
  483TIP3    H117116   3.607   3.895   6.754 -0.4510 -0.1918  0.1886
  483TIP3    H217117   3.747   3.916   6.808 -0.1487  1.2844 -1.0975
  484TIP3   OH217118   2.680   6.245   7.577  0.2313  0.2604 -0.3643
  484TIP3    H117119   2.734   6.166   7.574 -1.4398 -1.0442  1.1744
  484TIP3    H217120   2.712   6.299   7.505  1.4028 -1.8445 -1.5245
  485TIP3   OH217121   1.723   5.470   7.283  0.1012  0.1201 -0.0415
  485TIP3    H117122   1.776   5.451   7.360 -0.2677 -0.8629 -0.0213
  485TIP3    H217123   1.637   5.435   7.304 -0.5317  1.5729 -0.1326
  486TIP3   OH217124   5.630   2.320   6.340 -0.4654 -0.1369  0.2115
  486TIP3    H117125   5.561   2.310   6.275 -0.7873  0.3116  0.4700
  486TIP3    H217126   5.707   2.348   6.290 -0.7212  0.2474  0.0286
  487TIP3   OH217127   6.265   5.453   7.655 -0.2375 -0.4051 -0.3502
  487TIP3    H117128   6.232   5.376   7.702 -1.2147 -0.3996 -0.9851
  487TIP3    H217129   6.251   5.526   7.716 -0.6766 -0.5202 -0.3107
  488TIP3   OH217130   5.792   1.108   6.301 -0.0700 -0.2338 -0.0433
  488TIP3    H117131   5.729   1.061   6.356 -1.6721  5.0167  3.3228
  488TIP3    H217132   5.748   1.115   6.216 -1.6804 -1.0812  0.6782
  489TIP3   OH217133   5.748   3.333   7.178  0.3814  0.5673  0.0077
  489TIP3    H117134   5.668   3.299   7.138  1.2064 -0.6003 -0.7189
  489TIP3    H217135   5.755   3.423   7.146 -0.6735  0.7085  0.1457
  490TIP3   OH217136   5.153   0.414   2.281 -0.1745 -0.2413 -0.3047
  490TIP3    H117137   5.124   0.496   2.242  0.0481 -0.1948 -0.3776
  490TIP3    H217138   5.189   0.439   2.367  0.7542 -0.1273 -0.7097
  491TIP3   OH217139   5.010   2.595   7.006 -0.3790  0.7134  0.0745
  491TIP3    H117140   5.068   2.624   6.936 -0.2221  1.8309  0.6335
  491TIP3    H217141   5.061   2.606   7.086 -1.1170  1.0885  0.5151
  492TIP3   OH217142   0.686   1.898   7.158 -0.0146 -0.1623  0.4013
  492TIP3    H117143   0.680   1.935   7.070 -0.0445  0.3359  0.6084
  492TIP3    H217144   0.744   1.822   7.149  2.1795  1.4267  0.4421
  493TIP3   OH217145   1.329   0.019   0.190 -0.1045  0.4457  0.0680
  493TIP3    H117146   1.412   0.023   0.238 -0.1641 -0.5909  0.2921
  493TIP3    H217147   1.322  -0.073   0.163 -1.8603  0.1648  1.2986
  494TIP3   OH217148   3.670   1.796   3.083  0.7688 -0.0574  0.3069
  494TIP3    H117149   3.703   1.886   3.072 -0.0635 -0.0230 -3.1373
  494TIP3    H217150   3.588   1.806   3.131  0.9671  0.9372  0.4666
  495TIP3   OH217151   5.537   5.514   0.948 -0.6193 -0.0046  0.8217
  495TIP3    H117152   5.496   5.516   0.862  0.5426 -0.7421  0.2194
  495TIP3    H217153   5.614   5.571   0.939  0.2294 -1.0795  0.9522
  496TIP3   OH217154   0.872   5.302   6.693  0.2461 -0.0738  0.5867
  496TIP3    H117155   0.931   5.252   6.637  1.6623 -0.0982  2.0456
  496TIP3    H217156   0.848   5.241   6.763 -2.8823 -0.6107 -0.8061
  497TIP3   OH217157   1.084   6.094   0.974  0.0613  0.1923 -0.0683
  497TIP3    H117158   1.047   6.013   1.008 -0.5800  0.1408 -0.8594
  497TIP3    H217159   1.174   6.095   1.006 -0.4081 -0.0055  1.3506
  498TIP3   OH217160   2.384   2.936   0.321 -0.1893  0.0122 -0.3182
  498TIP3    H117161   2.414   2.906   0.236  1.1191  1.0871 -0.2684
  498TIP3    H217162   2.378   3.031   0.313  0.5584  0.2039  0.9312
  499TIP3   OH217163   4.508   2.235   0.476 -0.6137  0.5034 -0.0091
  499TIP3    H117164   4.484   2.248   0.384  2.8902  2.1874 -0.8881
  499TIP3    H217165   4.443   2.284   0.525 -0.9201  2.1020 -1.8651
  500TIP3   OH217166   4.944   1.047   1.665  0.1715  0.2200  0.5177
  500TIP3    H117167   4.992   1.078   1.743 -0.5474  1.4228  0.5017
  500TIP3    H217168   4.875   0.991   1.701 -0.2935  0.9456  0.7694
  501TIP3   OH217169   4.549   3.257   0.911 -0.3912  0.1355 -0.7935
  501TIP3    H117170   4.607   3.284   0.840 -1.8888  1.3933 -1.6404
  501TIP3    H217171   4.598   3.275   0.991  0.2700  1.5031 -1.4683
  502TIP3   OH217172   5.873   6.223   1.208  0.2286 -0.5070 -0.6479
  502TIP3    H117173   5.793   6.245   1.256  0.9315  0.3957  0.1687
  502TIP3    H217174   5.844   6.205   1.119 -0.9095 -0.4743 -0.2992
  503TIP3   OH217175   2.315   0.912   1.148 -0.2649  1.2632  0.1065
  503TIP3    H117176   2.369   0.835   1.130 -2.8086 -0.6904  0.1956
  503TIP3    H217177   2.245   0.879   1.204 -2.1521  3.3809 -0.8724
  504TIP3   OH217178   0.095   0.102   0.643 -0.0540 -0.1757 -0.2464
  504TIP3    H117179   0.109   0.030   0.581 -0.6004 -0.9018  0.4532
  504TIP3    H217180   0.159   0.087   0.712 -0.0734  0.0938 -0.1707
  505TIP3   OH217181   2.752   1.425   6.450  0.7534 -0.2652 -0.5447
  505TIP3    H117182   2.722   1.459   6.535  0.4291  0.2402 -0.8606
  505TIP3    H217183   2.820   1.362   6.473  0.3761 -0.4484  0.1200
  506TIP3   OH217184   1.663   2.844   1.696  0.4273  0.1358  0.2531
  506TIP3    H117185   1.667   2.936   1.723  0.5499  0.9781 -2.3629
  506TIP3    H217186   1.639   2.848   1.603  0.8540 -2.4732 -0.0217
  507TIP3   OH217187   3.144   1.571   6.403 -0.5340 -0.1799 -0.0597
  507TIP3    H117188   3.114   1.539   6.488  0.8737 -2.7992 -0.4450
  507TIP3    H217189   3.229   1.612   6.421 -0.3811 -0.4581 -0.1321
  508TIP3   OH217190   2.873   6.279   1.624  0.3542  0.2285  0.4678
  508TIP3    H117191   2.796   6.284   1.680  0.5112  0.4359  0.6686
  508TIP3    H217192   2.905   6.370   1.619  0.8769  0.0665  0.8007
  509TIP3   OH217193   0.103   6.060   1.495 -0.6626 -0.2235 -0.3666
  509TIP3    H117194   0.013   6.042   1.522 -0.2224 -0.2759  1.1564
  509TIP3    H217195   0.149   5.977   1.508 -0.5149 -0.3837 -1.7717
  510TIP3   OH217196   3.878   5.768   1.563  0.1403  0.3416  0.4592
  510TIP3    H117197   3.847   5.799   1.648  0.1126  0.1253  0.5289
  510TIP3    H217198   3.799   5.761   1.510  0.2400  1.2339  0.1613
  511TIP3   OH217199   1.613   3.717   1.384  0.1124 -1.1082 -0.3270
  511TIP3    H117200   1.529   3.683   1.354 -0.2136 -2.4815  1.9364
  511TIP3    H217201   1.594   3.755   1.470  1.8082 -1.4888  0.2480
  512TIP3   OH217202   2.914   5.463   2.296  0.2985 -0.4415  0.0132
  512TIP3    H117203   2.880   5.374   2.305  0.5248 -0.5727 -0.4149
  512TIP3    H217204   2.851   5.517   2.345  0.8113 -0.9656  1.2889
  513TIP3   OH217205   6.072   3.939   0.334  0.0418 -0.1711  0.1676
  513TIP3    H117206   5.981   3.966   0.327 -0.1983 -1.2315 -1.6921
  513TIP3    H217207   6.080   3.902   0.422 -1.1895  0.3607  0.5189
  514TIP3   OH217208   5.805   0.036   7.550  0.2393 -0.1576 -0.4797
  514TIP3    H117209   5.890   0.077   7.542  0.3871 -0.2512  0.4624
  514TIP3    H217210   5.821  -0.043   7.603 -0.7872  1.0898  1.8411
  515TIP3   OH217211   0.767   0.581   0.600  0.1048  0.1710  0.2689
  515TIP3    H117212   0.760   0.676   0.605  0.8329  0.3515 -1.4483
  515TIP3    H217213   0.747   0.560   0.509  0.0183 -1.3182  0.6074
  516TIP3   OH217214   2.625   3.249   2.539 -0.2574 -0.6140 -0.0610
  516TIP3    H117215   2.624   3.345   2.544 -0.1173 -0.3835 -2.8709
  516TIP3    H217216   2.713   3.225   2.568  0.7585  0.3956 -2.1260
  517TIP3   OH217217   1.218   4.390   6.280  0.0710 -0.4949 -0.5168
  517TIP3    H117218   1.162   4.316   6.258  1.0415 -1.1380 -0.8686
  517TIP3    H217219   1.195   4.458   6.216 -2.6941  0.5428  1.3752
  518TIP3   OH217220   3.761   2.978   1.072 -0.4190 -0.2974  0.1002
  518TIP3    H117221   3.703   2.911   1.110 -2.2978  1.3000  0.2172
  518TIP3    H217222   3.794   2.938   0.992 -0.8704 -1.6502  0.5523
  519TIP3   OH217223   4.967   2.961   6.708  0.1597  0.0498 -0.2951
  519TIP3    H117224   5.017   2.887   6.675  0.2482  0.2723 -0.6666
  519TIP3    H217225   4.880   2.949   6.670  0.4931  0.7778 -1.3534
  520TIP3   OH217226   4.282   0.364   2.086  0.0930 -0.2086  0.0943
  520TIP3    H117227   4.320   0.302   2.148 -0.2367 -0.8115 -0.2988
  520TIP3    H217228   4.311   0.450   2.117 -0.6060 -0.4472  1.4826
  521TIP3   OH217229   1.354   1.913   1.684 -0.2453  0.2265 -0.0339
  521TIP3    H117230   1.293   1.915   1.610  1.0281  0.7603 -1.0955
  521TIP3    H217231   1.297   1.921   1.761 -1.7094 -1.5381 -0.8585
  522TIP3   OH217232   0.265   5.609   6.601 -0.2979  0.4128 -0.2481
  522TIP3    H117233   0.307   5.578   6.681 -0.2190 -1.9038 -1.1257
  522TIP3    H217234   0.172   5.591   6.615 -0.2369 -0.3536 -0.8286
  523TIP3   OH217235   3.474   4.014   7.313 -0.0442 -0.5017 -0.5016
  523TIP3    H117236   3.459   4.031   7.406  0.0711 -0.7048 -0.4453
  523TIP3    H217237   3.398   3.963   7.285 -0.3106 -0.0402 -0.6325
  524TIP3   OH217238   2.909   4.281   2.177  0.2645  0.0716  0.3434
  524TIP3    H117239   2.920   4.261   2.270 -1.4775 -1.4070  0.2785
  524TIP3    H217240   2.862   4.364   2.176  0.6169  0.2850  0.7625
  525TIP3   OH217241   2.470   4.216   0.556 -0.1532 -0.4647 -0.0917
  525TIP3    H117242   2.380   4.184   0.552 -0.9310  1.3971  1.1861
  525TIP3    H217243   2.489   4.248   0.467 -1.4215  0.7354  0.0413
  526TIP3   OH217244   6.308   0.417   5.838  0.5722  0.6736  0.1138
  526TIP3    H117245   6.216   0.393   5.846  0.7548 -0.0550  0.0863
  526TIP3    H217246   6.351   0.375   5.913  1.3025 -1.2211 -1.2857
  527TIP3   OH217247   1.948   5.208   1.068  0.5883  0.1702 -0.3257
  527TIP3    H117248   1.939   5.244   0.979 -1.2451 -0.1064 -0.3029
  527TIP3    H217249   2.024   5.151   1.063  1.3446  1.1993 -1.3415
  528TIP3   OH217250   4.971   3.378   6.042 -0.0730  0.2268 -0.0533
  528TIP3    H117251   4.881   3.400   6.063  0.0299 -0.4104  1.1113
  528TIP3    H217252   5.021   3.403   6.120  0.0065 -4.3480  1.6729
  529TIP3   OH217253   4.939   4.492   2.253 -0.5250 -0.1326  0.0700
  529TIP3    H117254   4.935   4.581   2.217 -0.5116 -0.2425 -0.2088
  529TIP3    H217255   4.978   4.503   2.339 -0.7085  0.1556  0.1177
  530TIP3   OH217256   1.732   4.286   7.595  0.0445 -0.0044  0.2365
  530TIP3    H117257   1.726   4.195   7.565 -0.7496  0.1320 -0.0476
  530TIP3    H217258   1.666   4.293   7.664 -2.2107  1.1454 -1.8663
  531TIP3   OH217259   4.305   4.928   1.571 -0.1163 -0.1325 -0.4124
  531TIP3    H117260   4.212   4.910   1.589 -0.3898  0.8901 -0.7501
  531TIP3    H217261   4.343   4.842   1.556 -0.4464 -0.8421  2.3025
  532TIP3   OH217262   3.520   5.810   2.662  0.0962  0.1585 -0.5605
  532TIP3    H117263   3.432   5.782   2.687  0.6604 -0.1213  1.2225
  532TIP3    H217264   3.559   5.732   2.622  0.5006 -0.6781  1.3253
  533TIP3   OH217265   0.587   0.801   2.030 -0.5497 -0.3572  0.1194
  533TIP3    H117266   0.519   0.867   2.045 -0.7910 -0.3004 -1.1106
  533TIP3    H217267   0.623   0.783   2.117 -2.2036 -0.4638  0.8126
  534TIP3   OH217268   1.865   1.056   6.881  0.0851 -0.7219  0.3074
  534TIP3    H117269   1.799   1.111   6.924  0.7374  1.0622 -0.8213
  534TIP3    H217270   1.936   1.050   6.944 -0.5384 -1.4268  0.9619
  535TIP3   OH217271   0.186   1.305   0.849  0.6784 -0.7806 -0.0939
  535TIP3    H117272   0.182   1.233   0.912 -2.0355 -0.9878 -0.4193
  535TIP3    H217273   0.217   1.264   0.768  1.5600 -1.0493  0.3661
  536TIP3   OH217274   4.178   3.294   0.512  0.6426  0.1462  0.3114
  536TIP3    H117275   4.117   3.275   0.583 -0.0064 -0.2187 -0.3363
  536TIP3    H217276   4.188   3.211   0.466  0.8730  0.4350 -0.1698
  537TIP3   OH217277   2.980   2.015   0.214 -0.0364 -0.0649 -0.0253
  537TIP3    H117278   3.054   1.975   0.259  1.8804 -0.3811 -3.1775
  537TIP3    H217279   2.974   1.968   0.131 -2.7072  1.1195 -0.6052
  538TIP3   OH217280   0.177   0.648   6.668  0.4695 -0.2884 -0.2066
  538TIP3    H117281   0.154   0.678   6.579 -1.6309  0.6740  0.5716
  538TIP3    H217282   0.268   0.621   6.662  0.3436 -0.3780 -2.6911
  539TIP3   OH217283   2.383   5.529   1.346 -0.1305 -0.0713  0.6743
  539TIP3    H117284   2.435   5.592   1.397 -0.4227  0.2200  0.6126
  539TIP3    H217285   2.429   5.523   1.262 -0.7969  1.0065  0.2249
  540TIP3   OH217286   2.270   4.442   0.269 -0.5188 -0.5188  0.0942
  540TIP3    H117287   2.211   4.403   0.205  0.6692  0.3975 -1.6429
  540TIP3    H217288   2.313   4.513   0.222  2.8761 -1.8974  0.8130
  541TIP3   OH217289   2.052   4.480   0.066  0.5685 -0.1333 -0.4938
  541TIP3    H117290   1.964   4.498   0.100 -0.0077 -1.7729 -1.0305
  541TIP3    H217291   2.054   4.526  -0.018 -0.0423 -0.6713 -0.8094
  542TIP3   OH217292   5.905   4.885   2.367 -0.0646 -0.0521  0.6862
  542TIP3    H117293   5.839   4.946   2.401  1.4156  0.2739  3.1394
  542TIP3    H217294   5.856   4.803   2.353 -1.6202  1.0217 -0.6621
  543TIP3   OH217295   4.551   3.270   2.129 -0.4726 -0.2569  0.3963
  543TIP3    H117296   4.641   3.299   2.145 -1.0387  0.7402  2.1123
  543TIP3    H217297   4.550   3.178   2.154  0.0352 -0.2300  0.5175
  544TIP3   OH217298   3.285   3.272   7.103  0.4950  0.3792  0.5377
  544TIP3    H117299   3.335   3.323   7.166  1.2780  1.3180 -0.7883
  544TIP3    H217300   3.193   3.291   7.124  0.7084 -0.0497  1.9469
  545TIP3   OH217301   0.797   2.162   0.509 -0.4477 -0.5833 -0.2129
  545TIP3    H117302   0.854   2.231   0.475  2.4553 -2.9785 -0.5965
  545TIP3    H217303   0.711   2.203   0.514  0.3409  2.0151 -3.8171
  546TIP3   OH217304   0.397   5.559   1.004 -0.0339 -0.0485  0.4916
  546TIP3    H117305   0.309   5.574   0.971 -0.3119 -0.4805  1.0088
  546TIP3    H217306   0.398   5.466   1.027  0.4327  0.0369  0.8360
  547TIP3   OH217307   1.965   1.426   1.794 -0.0261 -0.4080 -0.4591
  547TIP3    H117308   1.869   1.423   1.795 -0.0491 -3.5858  1.2273
  547TIP3    H217309   1.988   1.424   1.701 -1.5693  0.6821 -0.9058
  548TIP3   OH217310   0.634   5.646   0.039  0.6915  0.3155 -0.1423
  548TIP3    H117311   0.611   5.713  -0.025  0.8668 -0.8944 -1.5245
  548TIP3    H217312   0.590   5.567   0.008  1.8099 -0.5995  0.5196
  549TIP3   OH217313   2.027   5.902   6.225 -0.8314 -0.1357  0.5305
  549TIP3    H117314   2.121   5.889   6.231 -0.7845 -0.2033 -0.2566
  549TIP3    H217315   2.002   5.941   6.309 -0.2099 -0.7441  1.0033
  550TIP3   OH217316   4.007   2.277   6.325 -0.1543 -0.6019  0.1731
  550TIP3    H117317   3.960   2.225   6.391 -1.1113  0.8924  0.7081
  550TIP3    H217318   3.944   2.343   6.296  0.6026 -0.5554 -1.4794
  551TIP3   OH217319   5.711   1.206   2.684 -0.0277  0.9394 -0.0173
  551TIP3    H117320   5.749   1.288   2.654  1.2908 -0.1540 -1.5099
  551TIP3    H217321   5.731   1.143   2.614 -1.3089 -0.5745  0.9027
  552TIP3   OH217322   6.305   1.858   0.986 -0.0921  0.3752 -0.2667
  552TIP3    H117323   6.389   1.903   0.978  0.6666 -0.8270  0.5224
  552TIP3    H217324   6.329   1.766   0.998 -1.4950  0.1528  1.0751
  553TIP3   OH217325   4.502   0.783   6.400  0.1239  0.2370  0.0992
  553TIP3    H117326   4.447   0.786   6.321  1.0090 -2.1060 -0.7026
  553TIP3    H217327   4.503   0.691   6.424 -0.2046  0.9098  2.9777
  554TIP3   OH217328   3.013   5.644   2.066  0.1482  0.5963 -0.1198
  554TIP3    H117329   3.010   5.573   2.131  1.3859 -0.8125 -1.5009
  554TIP3    H217330   3.058   5.605   1.991  0.3143  2.6919 -1.1789
  555TIP3   OH217331   2.063   0.277   2.956 -0.6032 -0.0793  0.1261
  555TIP3    H117332   2.040   0.223   3.032 -0.8934 -0.0883  0.0317
  555TIP3    H217333   2.158   0.266   2.947 -0.8932 -2.0268 -0.9964
  556TIP3   OH217334   3.597   3.580   0.758 -0.0518  0.1613  0.3431
  556TIP3    H117335   3.682   3.558   0.720 -1.8646 -2.4746 -2.7003
  556TIP3    H217336   3.596   3.532   0.841  0.0207 -3.3805 -1.5028
  557TIP3   OH217337   5.954   1.934   7.125 -0.5694 -0.2776  0.0974
  557TIP3    H117338   5.902   1.929   7.205  2.0881  2.1941  2.2119
  557TIP3    H217339   5.920   2.010   7.079 -0.0959  0.1720  0.4859
  558TIP3   OH217340   5.170   4.210   0.691  0.4722 -0.3242  0.1468
  558TIP3    H117341   5.224   4.139   0.725 -2.0887 -3.7304 -2.2540
  558TIP3    H217342   5.220   4.246   0.618  1.2815 -0.4985  0.6103
  559TIP3   OH217343   0.836   5.112   0.483 -0.4834  0.1483 -0.3213
  559TIP3    H117344   0.744   5.138   0.483 -0.7186 -0.6078  0.1430
  559TIP3    H217345   0.854   5.084   0.393 -0.7526  0.1751 -0.3836
  560TIP3   OH217346   6.013   4.165   6.838  0.2307 -0.3784 -0.2921
  560TIP3    H117347   6.004   4.165   6.933  1.0500 -1.8453 -0.1946
  560TIP3    H217348   6.067   4.241   6.819  0.1364 -0.1298  0.4170
  561TIP3   OH217349   3.981   1.991   7.022  0.3366  0.0818  0.0231
  561TIP3    H117350   3.922   1.936   6.970  1.5509 -0.8135 -0.4442
  561TIP3    H217351   4.068   1.975   6.985  1.0388  0.5248  1.4208
  562TIP3   OH217352   2.843   1.350   1.559 -0.3118  0.3209 -0.1545
  562TIP3    H117353   2.785   1.308   1.496 -1.0599 -0.0951  0.7840
  562TIP3    H217354   2.792   1.354   1.640  1.8517 -2.7312  1.6079
  563TIP3   OH217355   0.168   4.430   2.252  0.1258 -0.8976 -0.4277
  563TIP3    H117356   0.124   4.512   2.276  0.0389 -1.4534  1.5113
  563TIP3    H217357   0.112   4.392   2.184  0.4761  0.8833 -1.7864
  564TIP3   OH217358   2.145   0.451   1.164  0.5862  0.4271 -0.5515
  564TIP3    H117359   2.117   0.516   1.100  2.4383  2.2523  0.3833
  564TIP3    H217360   2.091   0.374   1.145 -1.1167  1.9337 -2.2332
  565TIP3   OH217361   1.158   5.401   6.521 -0.3227  0.3584 -0.2778
  565TIP3    H117362   1.170   5.481   6.471 -0.8812  0.9261  0.4651
  565TIP3    H217363   1.064   5.400   6.541 -0.4532 -0.8539 -0.8834
  566TIP3   OH217364   5.548   0.795   0.882 -0.3119  0.2139  0.5185
  566TIP3    H117365   5.582   0.714   0.844 -0.3145  0.6414 -0.4304
  566TIP3    H217366   5.597   0.806   0.963  1.6930  0.6854 -0.6875
  567TIP3   OH217367   4.715   2.747   6.410 -0.1881 -0.1190  0.2035
  567TIP3    H117368   4.694   2.654   6.397 -0.3319  0.0047 -0.5356
  567TIP3    H217369   4.664   2.792   6.343  1.2580  0.3354 -0.6446
  568TIP3   OH217370   2.125   4.375   6.988  0.1458 -0.4160 -0.6793
  568TIP3    H117371   2.137   4.312   6.917  0.3897  0.5427 -1.5220
  568TIP3    H217372   2.058   4.335   7.044 -1.6319 -0.3099 -2.5659
  569TIP3   OH217373   4.014   1.340   1.627 -0.3550  0.1719  0.3796
  569TIP3    H117374   3.919   1.333   1.637 -0.5840  1.6563 -0.4803
  569TIP3    H217375   4.039   1.263   1.577 -1.3073  0.4648 -0.5679
  570TIP3   OH217376   4.026   0.302   0.194  0.0424 -0.2471 -0.0020
  570TIP3    H117377   4.057   0.289   0.284 -1.2325 -0.2508  0.4628
  570TIP3    H217378   3.958   0.236   0.182 -0.1307  0.0640 -0.7950
  571TIP3   OH217379   0.561   1.236   0.719 -0.1191  0.3742  0.0543
  571TIP3    H117380   0.655   1.252   0.725  0.1184 -0.8581 -0.2161
  571TIP3    H217381   0.525   1.317   0.682  0.4139  2.0533  2.8927
  572TIP3   OH217382   2.215   0.486   7.221 -0.0137  0.6887  0.1305
  572TIP3    H117383   2.146   0.525   7.275 -0.7369 -0.8781  0.3861
  572TIP3    H217384   2.175   0.476   7.134 -0.7189 -1.6381  0.6477
  573TIP3   OH217385   4.078   5.488   0.759  0.4530  0.2811  0.2803
  573TIP3    H117386   4.058   5.559   0.698  1.9345  0.4092 -0.0927
  573TIP3    H217387   4.167   5.460   0.736  0.5635 -0.5285  1.5538
  574TIP3   OH217388   1.394   4.505   7.271  0.6711 -0.6131 -0.0309
  574TIP3    H117389   1.441   4.489   7.189  2.6178 -0.6074  1.0081
  574TIP3    H217390   1.428   4.589   7.301 -2.0481  0.7704 -0.5065
  575TIP3   OH217391   4.229   0.141   5.711  0.1070  0.4420  0.2481
  575TIP3    H117392   4.291   0.187   5.768 -2.2489  0.9873  2.5665
  575TIP3    H217393   4.180   0.212   5.668  1.7788  0.0365 -2.5100
  576TIP3   OH217394   4.832   6.183   6.294 -0.1835  0.0441  0.3658
  576TIP3    H117395   4.904   6.160   6.353  0.0550  1.3729  0.6282
  576TIP3    H217396   4.850   6.134   6.213  0.7120 -0.0614  0.6201
  577TIP3   OH217397   5.247   3.561   0.511 -0.5646 -0.2721 -0.1618
  577TIP3    H117398   5.166   3.564   0.562 -0.4061  0.8201  0.0370
  577TIP3    H217399   5.296   3.639   0.538  0.6517 -1.0089 -0.1290
  578TIP3   OH217400   1.873   2.900   0.990 -0.7962 -0.3756 -0.1227
  578TIP3    H117401   1.947   2.916   0.931  0.7189 -0.3383  1.6978
  578TIP3    H217402   1.862   2.805   0.990 -0.1813 -0.4529  0.2305
  579TIP3   OH217403   3.736   1.945   0.197 -0.4145 -0.1284 -0.6027
  579TIP3    H117404   3.695   1.907   0.120 -0.0507  0.5285 -1.1408
  579TIP3    H217405   3.734   1.876   0.263  1.2211 -1.5037 -1.8727
  580TIP3   OH217406   5.482   1.051   0.774 -0.1368 -0.6676 -0.1022
  580TIP3    H117407   5.498   0.963   0.807  2.1337 -0.8126 -1.4265
  580TIP3    H217408   5.568   1.091   0.768 -0.8343  0.6992 -2.0709
  581TIP3   OH217409   2.012   0.750   2.667 -0.2908  0.3191  0.2492
  581TIP3    H117410   1.997   0.683   2.601 -1.6606  1.1424 -0.3026
  581TIP3    H217411   2.060   0.705   2.737 -2.4531 -1.6340  0.5811
  582TIP3   OH217412   5.485   6.214   1.171 -0.0116  0.1418 -0.4624
  582TIP3    H117413   5.400   6.253   1.192 -0.3214 -0.7036 -0.1226
  582TIP3    H217414   5.541   6.236   1.246  0.2845  1.3009 -1.0038
  583TIP3   OH217415   3.887   1.336   1.270  0.4047  0.0912  0.2701
  583TIP3    H117416   3.975   1.302   1.255  0.4771 -0.4436  1.7902
  583TIP3    H217417   3.876   1.402   1.202  1.0096 -1.5553 -1.5105
  584TIP3   OH217418   4.468   4.503   0.944 -0.1693  0.9930  0.0570
  584TIP3    H117419   4.525   4.555   1.000 -0.3113 -0.0779  1.2311
  584TIP3    H217420   4.455   4.421   0.991 -2.1799  0.9554 -0.4513
  585TIP3   OH217421   5.803   0.323   0.638  0.1593  0.1452 -0.1028
  585TIP3    H117422   5.787   0.268   0.562  0.0895 -1.2230  0.8591
  585TIP3    H217423   5.728   0.383   0.640 -0.4394 -0.5762 -0.4502
  586TIP3   OH217424   1.121   0.399   7.255 -0.8590  0.3673  0.1323
  586TIP3    H117425   1.104   0.319   7.305 -1.8487  0.8802  0.6463
  586TIP3    H217426   1.035   0.434   7.235 -0.4586  0.4737 -1.4885
  587TIP3   OH217427   2.012   3.505   1.731 -0.9958 -0.0204  0.7101
  587TIP3    H117428   2.032   3.508   1.638 -0.4007 -0.5488  0.8106
  587TIP3    H217429   1.965   3.586   1.748 -1.9633 -0.3671 -0.2350
  588TIP3   OH217430   3.060   1.486   1.687 -0.1755  0.1402  0.1942
  588TIP3    H117431   3.004   1.451   1.617  1.4627 -1.6106 -0.3318
  588TIP3    H217432   3.134   1.526   1.641 -0.2555  1.1115  0.8951
  589TIP3   OH217433   4.049   2.644   0.358  0.0714  0.0983 -0.2092
  589TIP3    H117434   4.106   2.658   0.283  2.0858  0.7240  1.3504
  589TIP3    H217435   4.099   2.586   0.416 -1.0850  0.2584  0.9974
  590TIP3   OH217436   4.553   1.855   2.227  0.6220  0.5536  0.1768
  590TIP3    H117437   4.596   1.800   2.293  0.2767  0.6427  0.4746
  590TIP3    H217438   4.553   1.800   2.148 -0.3978 -0.1877  0.6640
  591TIP3   OH217439   1.645   3.110   1.753  0.7224  0.4910 -0.0914
  591TIP3    H117440   1.662   3.204   1.763 -2.3821  0.9900  1.8571
  591TIP3    H217441   1.577   3.105   1.686  1.1814 -0.4343 -0.5044
  592TIP3   OH217442   5.922   2.265   0.073  0.1444 -0.0224  0.0267
  592TIP3    H117443   5.874   2.188   0.104 -0.1994  0.2236  0.1137
  592TIP3    H217444   5.969   2.297   0.150  0.9628 -0.6302 -0.2025
  593TIP3   OH217445   2.915   4.513   7.263  0.7446  0.4972  0.7914
  593TIP3    H117446   2.967   4.438   7.293 -0.6251  0.0323  2.1140
  593TIP3    H217447   2.952   4.588   7.309 -0.4390 -0.0070  2.6597
  594TIP3   OH217448   4.180   1.797   1.194 -0.2499  0.0860  0.7596
  594TIP3    H117449   4.268   1.831   1.209 -0.3118  0.9969 -0.7746
  594TIP3    H217450   4.191   1.702   1.186  0.0792 -0.2632  3.9595
  595TIP3   OH217451   0.130   6.041   1.226  0.3792  0.2014  0.6398
  595TIP3    H117452   0.135   6.046   1.321  0.5167 -0.9957  0.7084
  595TIP3    H217453   0.036   6.044   1.207  0.0657 -2.9714  1.0905
  596TIP3   OH217454   0.693   0.699   7.472  0.5531 -0.0183 -0.5197
  596TIP3    H117455   0.681   0.625   7.413 -0.2157  0.3310 -0.8115
  596TIP3    H217456   0.613   0.750   7.464  0.9208  0.6571 -0.0462
  597TIP3   OH217457   2.205   0.056   0.106 -0.0383 -0.4918  0.4741
  597TIP3    H117458   2.158   0.040   0.187  1.8745 -0.5786  1.6382
  597TIP3    H217459   2.283  -0.000   0.112  2.3433  2.5296  0.6016
  598TIP3   OH217460   1.157   2.004   0.096  0.2047  0.4742 -0.4164
  598TIP3    H117461   1.135   1.920   0.135  1.2383  1.2486  1.9961
  598TIP3    H217462   1.199   1.982   0.013  0.6077 -1.3812  0.2447
  599TIP3   OH217463   6.266   1.210   0.495 -0.3532 -0.0363 -0.2502
  599TIP3    H117464   6.189   1.155   0.483  1.0725 -1.7772 -2.2842
  599TIP3    H217465   6.328   1.154   0.543  0.5546  0.3606 -0.9310
  600TIP3   OH217466   0.914   0.108   5.621 -0.3234  0.1425  0.6222
  600TIP3    H117467   0.990   0.116   5.564  0.9331  0.6383  2.2973
  600TIP3    H217468   0.904   0.014   5.636 -0.7626 -0.0026 -0.5017
  601TIP3   OH217469   1.857   2.515   6.592 -0.1188 -0.0815 -0.7074
  601TIP3    H117470   1.895   2.583   6.536  1.3888 -1.1409 -1.0300
  601TIP3    H217471   1.838   2.560   6.674 -0.3568  1.0194 -1.3480
  602TIP3   OH217472   0.257   5.040   6.509  0.1473 -0.1467  0.1336
  602TIP3    H117473   0.192   5.109   6.524 -1.0213 -0.5924 -2.3750
  602TIP3    H217474   0.313   5.075   6.439  0.1817 -1.3416 -0.4451
  603TIP3   OH217475   1.895   1.668   7.720  0.3162  0.3662  0.7511
  603TIP3    H117476   1.883   1.583   7.678  2.1853  0.9297 -1.0784
  603TIP3    H217477   1.837   1.727   7.672  0.2633  0.4438  0.9100
  604TIP3   OH217478   4.893   3.005   7.486  0.2737 -0.7112 -0.0011
  604TIP3    H117479   4.947   2.965   7.417 -1.0197 -2.1897 -0.2182
  604TIP3    H217480   4.836   3.066   7.439  0.9332 -0.0339  0.0705
  605TIP3   OH217481   1.489   3.070   6.050 -0.0493 -0.5900  0.1959
  605TIP3    H117482   1.497   2.983   6.011 -1.1730 -0.3427 -0.6413
  605TIP3    H217483   1.559   3.121   6.009 -0.3708 -0.6950 -0.5025
  606TIP3   OH217484   6.035   1.387   7.731 -0.1666  0.1445 -0.4668
  606TIP3    H117485   6.002   1.474   7.750  1.5152  1.0274 -1.3841
  606TIP3    H217486   5.965   1.328   7.759 -0.8197  1.6990  1.3432
  607TIP3   OH217487   2.934   5.900   2.020  0.0806  0.4819  0.1434
  607TIP3    H117488   2.979   5.826   2.059 -0.2818  0.8127  1.2182
  607TIP3    H217489   2.880   5.862   1.951  2.4352  0.1309 -1.6557
  608TIP3   OH217490   4.776   3.803   1.259  0.3880 -0.7643  0.0101
  608TIP3    H117491   4.743   3.889   1.230 -0.9196 -1.7800 -1.7265
  608TIP3    H217492   4.870   3.817   1.270  0.1500  1.0022  0.2023
  609TIP3   OH217493   6.159   0.998   7.579  0.3725  0.8959 -0.3024
  609TIP3    H117494   6.182   0.990   7.487 -0.1657  1.9470 -0.5403
  609TIP3    H217495   6.094   0.929   7.594  0.9294  0.3073 -0.5361
  610TIP3   OH217496   2.206   3.824   6.067  0.4794  0.0763 -0.1741
  610TIP3    H117497   2.240   3.808   6.155  1.6076  0.3124 -0.5484
  610TIP3    H217498   2.272   3.879   6.025 -0.7529  1.2244 -0.6938
  611TIP3   OH217499   4.397   0.511   0.875 -0.1296  0.2239 -0.2260
  611TIP3    H117500   4.431   0.437   0.926 -0.1302 -0.0692 -0.6445
  611TIP3    H217501   4.434   0.589   0.917  0.7341 -0.0646 -0.4233
  612TIP3   OH217502   4.614   0.956   0.367  1.0843 -0.3240  0.1392
  612TIP3    H117503   4.696   1.003   0.380  1.0291  0.3586 -1.7049
  612TIP3    H217504   4.547   1.024   0.369  0.7402 -0.6535 -0.0398
  613TIP3   OH217505   3.003   5.617   0.013 -0.0732 -0.1310  0.0085
  613TIP3    H117506   2.960   5.579  -0.064  0.8356  1.0916 -1.1300
  613TIP3    H217507   3.045   5.542   0.056 -0.8698 -0.8754 -0.4766
  614TIP3   OH217508   2.222   4.498   2.146  0.2909  0.2412 -0.0500
  614TIP3    H117509   2.295   4.449   2.185 -0.0207 -1.4745 -1.4815
  614TIP3    H217510   2.259   4.534   2.065  0.3552  1.9761  0.7094
  615TIP3   OH217511   6.129   3.732   7.545 -0.6890 -0.4559  0.7258
  615TIP3    H117512   6.079   3.748   7.625 -2.0638 -2.9500  0.4637
  615TIP3    H217513   6.167   3.645   7.557 -0.3789 -0.6011 -1.0561
  616TIP3   OH217514   5.831   3.434   0.240  0.4056 -0.2066 -0.2567
  616TIP3    H117515   5.880   3.452   0.159 -2.1675 -1.2542 -2.1901
  616TIP3    H217516   5.871   3.492   0.305  1.9868  1.4226 -2.4914
  617TIP3   OH217517   3.904   3.535   0.694  0.0018 -0.6951 -0.0109
  617TIP3    H117518   3.937   3.582   0.771  0.8938 -1.0909 -0.1505
  617TIP3    H217519   3.919   3.443   0.714  0.2436 -0.7988 -0.6635
  618TIP3   OH217520   3.289   3.965   2.156 -0.4031 -0.1676 -0.3901
  618TIP3    H117521   3.292   4.054   2.122 -2.2808  0.4141  0.8324
  618TIP3    H217522   3.261   3.975   2.247  1.1588 -1.8993  0.3385
  619TIP3   OH217523   4.141   0.395   1.049  0.4718  0.0954 -0.4857
  619TIP3    H117524   4.181   0.317   1.011 -3.8376 -2.3997 -0.5389
  619TIP3    H217525   4.146   0.381   1.144 -0.8750 -0.7166 -0.4992
  620TIP3   OH217526   3.998   3.161   6.971 -0.1475 -0.4444 -0.0053
  620TIP3    H117527   3.949   3.080   6.985  0.6969 -0.9902 -0.2019
  620TIP3    H217528   4.088   3.133   6.957  0.2485  0.5620  0.4418
  621TIP3   OH217529   4.989   1.575   7.633  0.2537 -0.3205 -0.0649
  621TIP3    H117530   4.960   1.588   7.543  0.0132  1.0728  0.1814
  621TIP3    H217531   4.928   1.628   7.685  0.8443 -0.5076  0.8412
  622TIP3   OH217532   5.501   3.346   2.622  0.8421 -0.4942  0.4088
  622TIP3    H117533   5.535   3.328   2.534 -1.9948  0.9579 -1.1007
  622TIP3    H217534   5.511   3.440   2.633 -0.9880 -0.2940  0.6157
  623TIP3   OH217535   2.056   5.275   2.282 -0.2857  0.0849  0.0592
  623TIP3    H117536   2.151   5.270   2.287 -0.2975 -0.9244 -0.4676
  623TIP3    H217537   2.036   5.367   2.297  0.7178  0.1823  0.8791
  624TIP3   OH217538   2.074   0.051   0.351  0.6581  0.2453  0.1315
  624TIP3    H117539   2.064   0.124   0.411  0.4284 -0.0160  0.4195
  624TIP3    H217540   2.058  -0.027   0.405 -0.5294  0.0468 -0.4700
  625TIP3   OH217541   6.103   1.205   2.517 -0.2444  0.0122  0.2274
  625TIP3    H117542   6.015   1.233   2.489 -0.8368 -1.5412  0.4445
  625TIP3    H217543   6.158   1.222   2.441 -0.5877  1.5943  0.3010
  626TIP3   OH217544   2.785   5.592   5.986 -0.1338 -0.1679 -0.0678
  626TIP3    H117545   2.879   5.609   5.979  0.0164 -0.4078  1.0509
  626TIP3    H217546   2.774   5.562   6.077 -1.1175 -1.2382 -0.5277
  627TIP3   OH217547   1.173   3.626   0.507  0.0055  0.4323  0.7512
  627TIP3    H117548   1.082   3.619   0.536  0.7425  1.0351  3.4118
  627TIP3    H217549   1.218   3.554   0.551  0.9472  0.4452 -0.1447
  628TIP3   OH217550   1.239   6.109   6.430  0.0285  0.0606 -0.2801
  628TIP3    H117551   1.229   6.144   6.342 -0.7237 -0.2263 -0.3134
  628TIP3    H217552   1.316   6.053   6.426  0.2155  0.3490 -0.6614
  629TIP3   OH217553   3.389   4.596   1.834 -0.0788  0.2957  0.0060
  629TIP3    H117554   3.381   4.651   1.912  0.6742 -1.7990  1.6507
  629TIP3    H217555   3.314   4.537   1.839 -1.9128  2.1376 -2.7002
  630TIP3   OH217556   2.675   5.023   0.428  0.7842 -0.3020 -0.0645
  630TIP3    H117557   2.714   5.013   0.341  0.0541  0.1022 -0.4470
  630TIP3    H217558   2.696   5.113   0.453  0.5884 -0.2649 -0.0310
  631TIP3   OH217559   6.225   0.125   1.259  0.3237 -0.2722  0.5120
  631TIP3    H117560   6.167   0.083   1.323 -1.1639  0.0102 -0.6033
  631TIP3    H217561   6.166   0.175   1.203  1.5217 -0.9346 -1.4264
  632TIP3   OH217562   3.031   3.184   7.234  0.0061  0.3261 -0.1188
  632TIP3    H117563   3.110   3.193   7.287  0.2145  3.2451 -0.7520
  632TIP3    H217564   2.962   3.228   7.284 -0.5127  0.4100 -0.8863
  633TIP3   OH217565   4.921   0.234   1.621  0.1195 -0.2512 -0.1734
  633TIP3    H117566   4.828   0.254   1.631  0.1503  0.0895 -0.5832
  633TIP3    H217567   4.963   0.281   1.693 -0.1844 -1.6604  0.9739
  634TIP3   OH217568   4.136   3.852   7.265 -0.3098 -0.0465 -0.2747
  634TIP3    H117569   4.104   3.769   7.231  0.8325 -0.3852 -0.5452
  634TIP3    H217570   4.221   3.865   7.224 -1.3297  2.3099 -1.9101
  635TIP3   OH217571   1.875   3.750   1.709  0.6430  0.2591  0.4086
  635TIP3    H117572   1.825   3.825   1.740 -0.8017  0.9399 -3.1163
  635TIP3    H217573   1.941   3.787   1.650  0.6196 -1.1377 -0.5435
  636TIP3   OH217574   4.172   4.595   1.531 -0.0225 -0.2701 -0.8839
  636TIP3    H117575   4.163   4.576   1.625 -0.3031 -0.3549 -0.9264
  636TIP3    H217576   4.107   4.664   1.515  2.3556  2.2984 -0.2896
  637TIP3   OH217577   4.648   4.051   7.150 -0.7084  0.8140  0.1630
  637TIP3    H117578   4.648   4.046   7.246 -0.3847  2.7672  0.2953
  637TIP3    H217579   4.640   3.960   7.122  0.3296  0.0913  2.0340
  638TIP3   OH217580   6.078   2.150   7.343  0.3358 -0.2570  0.0811
  638TIP3    H117581   6.085   2.109   7.430  1.6468  0.7079  0.4580
  638TIP3    H217582   5.988   2.181   7.339  0.3643  0.0497  1.2746
  639TIP3   OH217583   0.566   1.177   0.352  0.0570 -0.1101  0.1338
  639TIP3    H117584   0.485   1.184   0.403  0.2508 -2.2116  0.8609
  639TIP3    H217585   0.554   1.237   0.279 -2.2104 -0.4162  0.1747
  640TIP3   OH217586   0.544   3.837   1.884  0.1386  0.0840  0.0895
  640TIP3    H117587   0.561   3.757   1.834 -2.1354 -0.7158  0.5053
  640TIP3    H217588   0.479   3.885   1.833  1.1517  1.5034  0.0619
  641TIP3   OH217589   3.219   5.164   2.507 -0.4233 -0.7311 -0.0425
  641TIP3    H117590   3.202   5.086   2.455  1.9553  0.2403 -2.5068
  641TIP3    H217591   3.302   5.145   2.552 -0.6061 -0.1906  0.5362
  642TIP3   OH217592   0.354   3.021   7.330  0.3925 -0.0878  0.3074
  642TIP3    H117593   0.338   3.058   7.243  2.7687 -0.0409 -0.1977
  642TIP3    H217594   0.344   3.095   7.390  1.4892  0.5805 -0.2877
  643TIP3   OH217595   1.106   3.169   6.942  0.0896 -0.6747 -0.3216
  643TIP3    H117596   1.150   3.254   6.943 -1.0979 -0.0434  0.8042
  643TIP3    H217597   1.117   3.135   7.031 -2.1821 -0.2043  0.2009
  644TIP3   OH217598   3.345   4.133   1.807  0.2794  0.3849  0.1051
  644TIP3    H117599   3.363   4.169   1.894 -0.0101  1.2183 -0.1723
  644TIP3    H217600   3.336   4.039   1.822 -2.1267  0.7425  1.3870
  645TIP3   OH217601   2.883   0.107   2.709  0.4309 -0.3481  0.1324
  645TIP3    H117602   2.923   0.078   2.791 -0.6318 -0.4148  0.6346
  645TIP3    H217603   2.892   0.032   2.650 -1.6615 -1.5146  1.1984
  646TIP3   OH217604   4.122   5.293   1.909 -0.1965 -0.3736  0.3555
  646TIP3    H117605   4.129   5.388   1.912  0.4954 -0.4333  0.8372
  646TIP3    H217606   4.032   5.275   1.937  0.1346  0.0801  1.8503
  647TIP3   OH217607   5.752   4.599   5.912  0.1939  0.7072  0.0080
  647TIP3    H117608   5.841   4.626   5.891 -0.0392 -1.1587 -4.4923
  647TIP3    H217609   5.701   4.680   5.909  1.3475  1.4567 -0.0037
  648TIP3   OH217610   0.229   2.071   1.127  0.0967  0.3597  0.0785
  648TIP3    H117611   0.258   2.076   1.219 -0.9393  1.8751  0.3687
  648TIP3    H217612   0.209   2.162   1.104 -3.4658 -0.3878 -0.3792
  649TIP3   OH217613   4.519   1.397   6.812 -0.1561  0.6805 -0.1238
  649TIP3    H117614   4.454   1.388   6.882  1.3396  0.5177  1.3131
  649TIP3    H217615   4.550   1.308   6.797  0.0087  0.8080 -0.5430
  650TIP3   OH217616   1.149   2.125   0.727  0.0128  0.1098 -0.1935
  650TIP3    H117617   1.139   2.137   0.632 -0.4218  0.0830 -0.1551
  650TIP3    H217618   1.066   2.086   0.754  0.2442 -0.1340  0.1570
  651TIP3   OH217619   2.291   3.698   7.038  0.7957 -0.1724  0.4604
  651TIP3    H117620   2.308   3.690   6.944  1.1505 -0.7564  0.5634
  651TIP3    H217621   2.378   3.692   7.078  0.4793 -2.2743  0.9560
  652TIP3   OH217622   3.851   0.784   1.857  0.1634  0.6688 -0.0017
  652TIP3    H117623   3.840   0.746   1.944  0.4273 -1.7561 -0.9526
  652TIP3    H217624   3.902   0.864   1.873  1.4401 -0.4332  1.9648
  653TIP3   OH217625   1.440   3.162   7.698 -0.5201  0.2793  0.0538
  653TIP3    H117626   1.433   3.075   7.736  0.2615  0.5032  0.7569
  653TIP3    H217627   1.431   3.222   7.773 -1.9478  0.8434 -0.5384
  654TIP3   OH217628   1.592   0.031   0.993 -0.5470 -0.0221  0.5546
  654TIP3    H117629   1.666  -0.008   1.040  0.2755  2.5713  1.6271
  654TIP3    H217630   1.586  -0.019   0.911  2.9015  0.0757  0.0831
  655TIP3   OH217631   5.887   1.595   0.001 -0.0035 -0.4343 -0.0977
  655TIP3    H117632   5.844   1.644   0.072 -0.5028  0.1046 -0.7614
  655TIP3    H217633   5.821   1.533  -0.029  0.2505 -0.7469 -0.0193
  656TIP3   OH217634   3.837   4.770   1.002  0.3117  0.0084  0.0540
  656TIP3    H117635   3.766   4.709   1.023  1.6026 -1.1904  1.0852
  656TIP3    H217636   3.906   4.715   0.965  1.3057  0.9178  0.5172
  657TIP3   OH217637   1.978   6.021   6.897 -0.4854  0.3080  0.1769
  657TIP3    H117638   1.887   6.038   6.922 -0.1693  0.3785  1.3222
  657TIP3    H217639   2.028   6.093   6.937  0.2702 -0.6496  1.0120
  658TIP3   OH217640   3.747   0.680   0.936  0.6960 -0.3181 -0.1622
  658TIP3    H117641   3.738   0.666   1.031  0.3544 -2.6586 -0.4831
  658TIP3    H217642   3.811   0.615   0.908  0.9968  0.5350 -1.5111
  659TIP3   OH217643   5.269   1.471   5.524 -0.0140  0.1923  0.5660
  659TIP3    H117644   5.190   1.465   5.579  0.7076 -2.0375  1.4659
  659TIP3    H217645   5.328   1.405   5.560  1.8829  1.1068 -0.7405
  660TIP3   OH217646   1.094   5.794   0.050  0.1660  0.3027  0.8863
  660TIP3    H117647   0.998   5.800   0.051  0.0124 -1.3272 -0.4043
  660TIP3    H217648   1.121   5.831   0.134 -1.6260  0.3038  1.4966
  661TIP3   OH217649   2.989   6.094   6.130  0.3315  0.4794 -0.0057
  661TIP3    H117650   2.913   6.101   6.072 -0.3377 -2.2399  0.4372
  661TIP3    H217651   2.968   6.153   6.203 -0.4890  1.1394 -0.7438
  662TIP3   OH217652   6.216   6.033   1.723  0.1906  0.5376 -0.1810
  662TIP3    H117653   6.260   6.076   1.797 -0.2918  0.2965  0.2522
  662TIP3    H217654   6.187   5.949   1.758 -1.0068  0.8728 -0.3273
  663TIP3   OH217655   0.964   5.819   1.028 -0.0178 -0.3358  0.2419
  663TIP3    H117656   1.052   5.782   1.039 -0.1056 -0.4082  0.7389
  663TIP3    H217657   0.923   5.809   1.114 -0.1974  0.5227  0.2627
  664TIP3   OH217658   5.252   0.770   0.867  0.2458  0.0456 -0.6644
  664TIP3    H117659   5.246   0.837   0.800  0.3315 -1.0371 -1.7983
  664TIP3    H217660   5.344   0.772   0.895  0.6907 -0.7448 -1.9618
  665TIP3   OH217661   3.340   3.366   6.361 -0.3371  0.2066 -0.1299
  665TIP3    H117662   3.404   3.385   6.293 -1.0704 -0.1969 -0.9462
  665TIP3    H217663   3.334   3.447   6.412 -0.1737  0.6948 -0.8746
  666TIP3   OH217664   2.474   4.463   2.659 -0.0271  0.1468 -0.0566
  666TIP3    H117665   2.459   4.543   2.710  1.9829  0.5252  0.0387
  666TIP3    H217666   2.417   4.472   2.583  0.2968  1.8121 -0.1545
  667TIP3   OH217667   5.998   6.037   6.775 -0.3778 -0.6919 -0.5366
  667TIP3    H117668   6.053   6.093   6.829  0.2117 -0.9331 -0.8781
  667TIP3    H217669   5.973   6.091   6.700 -0.1360 -0.7602 -0.6668
  668TIP3   OH217670   1.515   5.068   7.373  0.3697  0.6471 -0.4297
  668TIP3    H117671   1.553   5.090   7.289  1.0051 -0.1299 -0.3595
  668TIP3    H217672   1.579   5.098   7.438  0.6200 -0.1569 -0.2909
  669TIP3   OH217673   6.079   5.679   0.347 -0.4090 -0.6287 -0.1718
  669TIP3    H117674   6.135   5.615   0.391 -1.7869 -1.2083  0.8377
  669TIP3    H217675   6.112   5.683   0.258  2.4901  0.5750  0.8404
  670TIP3   OH217676   5.060   0.783   7.454 -0.3084 -0.1820 -0.3583
  670TIP3    H117677   5.003   0.857   7.434 -0.2233 -0.2432 -0.8456
  670TIP3    H217678   5.143   0.804   7.411 -0.5968 -1.0138 -1.3673
  671TIP3   OH217679   6.283   1.109   1.648 -0.3253  0.0635  0.3720
  671TIP3    H117680   6.282   1.197   1.610 -0.3874 -0.1862 -0.2126
  671TIP3    H217681   6.280   1.124   1.742  0.6587  0.7118  0.3129
  672TIP3   OH217682   6.082   4.323   1.584  0.0684  0.2759  0.3783
  672TIP3    H117683   6.158   4.327   1.527  0.5736 -1.0172  0.9151
  672TIP3    H217684   6.007   4.330   1.526  0.5828 -0.2675 -0.3616
  673TIP3   OH217685   4.334   4.636   0.234  0.4337  0.1838  0.3311
  673TIP3    H117686   4.338   4.565   0.171 -0.4293  0.4729 -0.0602
  673TIP3    H217687   4.241   4.660   0.238  0.3955 -0.1174  2.0396
  674TIP3   OH217688   5.696   3.604   1.267 -0.0144 -0.1616 -0.2802
  674TIP3    H117689   5.792   3.608   1.267 -0.0245  0.6695 -1.3849
  674TIP3    H217690   5.670   3.657   1.342  0.3664  3.2246 -2.3117
  675TIP3   OH217691   2.589   0.015   0.236  0.6263 -0.2644 -0.4841
  675TIP3    H117692   2.540   0.056   0.164  1.1679  0.4364 -0.4675
  675TIP3    H217693   2.674   0.060   0.235  0.4188  0.2066  1.0058
  676TIP3   OH217694   4.875   2.231   7.460  0.0098  0.0653  0.0927
  676TIP3    H117695   4.952   2.253   7.408  0.3334 -0.0136  0.5312
  676TIP3    H217696   4.909   2.178   7.532 -0.7706 -2.2219 -1.1048
  677TIP3   OH217697   4.590   3.002   6.891  0.7110  0.4594  0.4394
  677TIP3    H117698   4.625   2.962   6.812 -0.4774 -4.4867  2.0476
  677TIP3    H217699   4.660   2.995   6.956 -0.1362 -0.9319  1.2522
  678TIP3   OH217700   2.713   2.841   7.585  0.0037 -0.1854  0.0631
  678TIP3    H117701   2.689   2.933   7.571 -0.8808 -0.3669  0.3470
  678TIP3    H217702   2.791   2.829   7.531 -0.5904  0.3948 -0.9628
  679TIP3   OH217703   0.592   0.681   2.290  0.2539  0.2272 -0.5014
  679TIP3    H117704   0.655   0.618   2.324  0.6514  0.6109 -0.5259
  679TIP3    H217705   0.585   0.748   2.358  0.1588  0.3819 -0.6620
  680TIP3   OH217706   3.599   1.227   1.456 -0.0495  0.2871 -0.0648
  680TIP3    H117707   3.600   1.174   1.536  1.9476 -0.4616 -0.5444
  680TIP3    H217708   3.541   1.178   1.397  0.5837 -0.5773  0.0148
  681TIP3   OH217709   3.594   3.460   1.083 -0.2691  0.1549  0.0012
  681TIP3    H117710   3.675   3.461   1.135 -0.4254 -0.1032  0.2512
  681TIP3    H217711   3.568   3.368   1.082  1.1992 -0.3550 -2.8394
  682TIP3   OH217712   3.881   1.201   6.762 -0.2152 -0.3402  0.5808
  682TIP3    H117713   3.891   1.217   6.668 -1.0957 -0.7902  0.3973
  682TIP3    H217714   3.857   1.286   6.799  0.2807 -0.1291  0.4298
  683TIP3   OH217715   0.242   5.266   5.614  0.3778  0.7289  0.7755
  683TIP3    H117716   0.233   5.360   5.630 -2.3438  0.3773  1.7994
  683TIP3    H217717   0.294   5.233   5.687  0.5664  1.2905  0.8962
  684TIP3   OH217718   0.078   4.137   1.388  0.0530  0.6202  0.1504
  684TIP3    H117719   0.167   4.173   1.382  0.0199  0.6189 -0.5055
  684TIP3    H217720   0.023   4.205   1.349 -0.0370 -0.0253 -0.8816
  685TIP3   OH217721   5.510   0.274   0.546 -0.5944 -0.6093 -0.0708
  685TIP3    H117722   5.544   0.361   0.565  1.1754 -1.2696 -0.0939
  685TIP3    H217723   5.478   0.242   0.631  2.2594 -1.3878  0.8167
  686TIP3   OH217724   3.194   3.596   0.072  0.0496  0.0073  0.0650
  686TIP3    H117725   3.217   3.675   0.121  0.3124 -0.3682  0.5588
  686TIP3    H217726   3.176   3.530   0.139 -0.3106 -0.3142 -0.3381
  687TIP3   OH217727   0.649   1.153   7.405 -0.5506  0.3706 -0.1801
  687TIP3    H117728   0.632   1.095   7.479  0.6110  1.2992  0.8540
  687TIP3    H217729   0.564   1.159   7.360 -0.2720 -3.9675 -1.7879
  688TIP3   OH217730   0.510   3.769   1.240  0.5302  0.0326 -0.3947
  688TIP3    H117731   0.566   3.814   1.177 -1.9809  2.6009 -0.9945
  688TIP3    H217732   0.448   3.719   1.185  0.0819  0.0075  0.1230
  689TIP3   OH217733   1.630   0.506   0.676  0.2449  0.4030 -0.1887
  689TIP3    H117734   1.568   0.512   0.748  0.2003 -1.5465 -0.0207
  689TIP3    H217735   1.695   0.574   0.694 -0.6506  1.0291  0.7881
  690TIP3   OH217736   1.963   1.530   7.100  0.2861  0.0992  0.6426
  690TIP3    H117737   1.882   1.493   7.135 -0.1338  1.4559  1.1964
  690TIP3    H217738   1.966   1.618   7.137  1.9216  0.1437  0.4659
  691TIP3   OH217739   0.266   3.231   1.563 -0.4761  0.2849  0.7438
  691TIP3    H117740   0.219   3.268   1.638  0.4285  0.8005  1.0635
  691TIP3    H217741   0.351   3.274   1.563 -0.4919  0.3792 -0.6489
  692TIP3   OH217742   1.524   1.761   0.930 -0.2496  0.4820  1.0116
  692TIP3    H117743   1.574   1.689   0.891 -1.2094 -0.2033  1.0158
  692TIP3    H217744   1.548   1.838   0.877  1.6567  0.4204  1.7150
  693TIP3   OH217745   0.574   1.708   6.954  0.2606 -0.6991  0.7856
  693TIP3    H117746   0.497   1.753   6.989  0.6854 -1.3811  2.7050
  693TIP3    H217747   0.541   1.622   6.929 -0.5765  0.5021 -2.9876
  694TIP3   OH217748   3.387   5.115   6.482 -0.5067 -0.3135 -0.0993
  694TIP3    H117749   3.336   5.182   6.439  0.4487  0.0232 -0.7244
  694TIP3    H217750   3.478   5.146   6.479 -0.3429 -0.4457  1.8127
  695TIP3   OH217751   4.524   1.364   0.325 -0.3198  0.0614 -0.2764
  695TIP3    H117752   4.476   1.446   0.319 -0.7391  0.0291  1.7573
  695TIP3    H217753   4.599   1.384   0.381 -0.5781 -0.9690  0.4816
  696TIP3   OH217754   5.226   4.087   0.076  0.0520  0.4542  0.5034
  696TIP3    H117755   5.309   4.097   0.028 -0.9843  1.2061 -1.2301
  696TIP3    H217756   5.162   4.066   0.008 -0.9543 -1.5705  2.0000
  697TIP3   OH217757   0.984   3.444   6.588 -0.1727 -0.1561 -0.3447
  697TIP3    H117758   0.901   3.483   6.560  0.4751  0.7715 -1.0309
  697TIP3    H217759   0.994   3.471   6.679 -1.0439 -1.0119  0.0150
  698TIP3   OH217760   2.948   4.094   7.687 -0.2240  0.0115 -0.4071
  698TIP3    H117761   2.959   4.069   7.779 -0.6975  0.3807 -0.2422
  698TIP3    H217762   2.983   4.021   7.637  1.7409  0.5666  0.0648
  699TIP3   OH217763   2.669   2.980   0.857 -0.0954 -0.3241  0.6321
  699TIP3    H117764   2.692   2.944   0.771 -1.0788  1.5433 -0.4954
  699TIP3    H217765   2.580   2.948   0.874 -2.2621  3.5711 -1.8002
  700TIP3   OH217766   6.028   4.869   0.498 -0.1333  0.0774 -0.0660
  700TIP3    H117767   6.025   4.790   0.443 -0.8475 -0.3332  0.5446
  700TIP3    H217768   5.940   4.876   0.535 -0.6146  2.1508 -1.4589
  701TIP3   OH217769   4.303   2.763   7.000 -0.1770  0.4995 -0.4544
  701TIP3    H117770   4.303   2.667   6.996  0.2527  0.4698  0.1638
  701TIP3    H217771   4.248   2.784   7.076  0.9301  0.6944  0.3068
  702TIP3   OH217772   3.810   0.489   0.365  0.1334  0.1106  0.1918
  702TIP3    H117773   3.886   0.537   0.398 -0.9445  1.0159  1.4737
  702TIP3    H217774   3.760   0.467   0.444 -0.8491 -0.6135 -0.6109
  703TIP3   OH217775   1.950   4.195   0.060 -0.0102  0.3460 -0.5331
  703TIP3    H117776   1.864   4.182   0.021 -0.1766 -0.2831  0.0202
  703TIP3    H217777   1.932   4.226   0.148  0.3471  0.7653 -0.6031
  704TIP3   OH217778   5.063   5.932   0.453 -0.3559 -0.3031  0.0741
  704TIP3    H117779   5.100   5.947   0.366 -0.0495 -0.4827  0.1699
  704TIP3    H217780   5.030   5.842   0.450 -1.2213  0.0119 -0.1615
  705TIP3   OH217781   0.377   5.741   1.968  0.0621  0.7249 -0.2040
  705TIP3    H117782   0.444   5.675   1.952 -0.3066 -0.0566  1.2988
  705TIP3    H217783   0.379   5.755   2.062  0.2347  3.0138 -0.5018
  706TIP3   OH217784   1.623   1.396   6.730  0.1517 -0.1310  0.1836
  706TIP3    H117785   1.533   1.398   6.698  0.2197 -1.1283 -0.1095
  706TIP3    H217786   1.617   1.358   6.817  0.1854  0.7797  0.5954
  707TIP3   OH217787   1.668   3.616   6.054 -0.6088  0.5801 -0.4179
  707TIP3    H117788   1.687   3.701   6.015 -0.6452  0.0976 -1.5234
  707TIP3    H217789   1.574   3.605   6.042 -0.4963  0.0925 -0.9006
  708TIP3   OH217790   0.826   5.028   7.400 -0.4474  0.3949  0.3245
  708TIP3    H117791   0.767   4.954   7.406  1.5468 -1.2848  0.2995
  708TIP3    H217792   0.865   5.035   7.487  0.2056  0.6963  0.0182
  709TIP3   OH217793   0.072   2.377   2.584 -0.1212  0.1573  0.0925
  709TIP3    H117794   0.139   2.377   2.516 -0.9293  1.8231 -0.7564
  709TIP3    H217795   0.039   2.467   2.585 -1.6977 -0.4019  1.1394
  710TIP3   OH217796   0.468   1.478   0.612  0.1354 -0.0353  0.3478
  710TIP3    H117797   0.523   1.531   0.554 -1.0424  0.7783 -0.0678
  710TIP3    H217798   0.460   1.531   0.692  0.7206 -0.5806  0.7726
  711TIP3   OH217799   6.225   5.076   1.532 -0.1309 -0.3373 -0.2219
  711TIP3    H117800   6.155   5.032   1.579  0.2007  0.0589  0.6632
  711TIP3    H217801   6.295   5.011   1.526 -0.2657 -0.4673 -0.3853
  712TIP3   OH217802   4.931   2.046   2.462  0.1256  0.0438  0.1960
  712TIP3    H117803   4.839   2.069   2.454  0.0351  0.3251  1.7251
  712TIP3    H217804   4.932   1.968   2.517  0.7914 -0.1300 -0.0451
  713TIP3   OH217805   3.641   2.204   0.219 -0.3052 -0.4340 -1.0964
  713TIP3    H117806   3.614   2.262   0.147  2.8274 -0.5569 -2.5361
  713TIP3    H217807   3.689   2.133   0.176 -1.0769 -2.2926  0.9226
  714TIP3   OH217808   1.935   4.791   1.547  0.3873 -0.2185  0.0452
  714TIP3    H117809   1.986   4.712   1.563 -0.0315 -0.6660 -0.7278
  714TIP3    H217810   1.859   4.760   1.497  0.1330  0.6453 -0.1194
  715TIP3   OH217811   3.738   5.149   1.282  0.1261  0.3603  0.4028
  715TIP3    H117812   3.806   5.118   1.223 -0.6177  1.7604 -1.2896
  715TIP3    H217813   3.664   5.171   1.225 -1.6444 -0.7517  2.1368
  716TIP3   OH217814   6.298   5.245   6.281 -0.2510  0.0305  0.8789
  716TIP3    H117815   6.358   5.194   6.227  0.0857 -1.8325  2.8824
  716TIP3    H217816   6.352   5.314   6.318 -0.2195  0.6008 -0.1973
  717TIP3   OH217817   1.158   4.761   2.029  0.6068  0.2254  0.1420
  717TIP3    H117818   1.207   4.689   2.069 -0.9476 -0.9640 -0.0108
  717TIP3    H217819   1.201   4.775   1.945  1.3722 -0.0345  0.4787
  718TIP3   OH217820   2.826   0.988   7.095  0.3344 -0.3646  0.2869
  718TIP3    H117821   2.752   0.939   7.058  1.2389 -1.3929 -0.2362
  718TIP3    H217822   2.894   0.922   7.108  0.6927  0.3194  2.0786
  719TIP3   OH217823   5.950   5.444   1.888 -0.0776 -0.2368  0.0505
  719TIP3    H117824   5.862   5.439   1.927 -0.2142 -0.3240 -0.2708
  719TIP3    H217825   5.940   5.502   1.812 -0.0672 -1.0387 -0.5688
  720TIP3   OH217826   3.267   0.900   0.569  0.4117  0.1585  0.5896
  720TIP3    H117827   3.334   0.836   0.591  1.6207  1.3035  0.4041
  720TIP3    H217828   3.203   0.851   0.518  0.7733 -1.1146  1.3134
  721TIP3   OH217829   2.522   5.616   1.614  0.2237  0.3688 -0.1449
  721TIP3    H117830   2.540   5.702   1.653  3.4780 -0.4914  0.5199
  721TIP3    H217831   2.602   5.594   1.567 -0.3780 -2.4789 -0.0067
  722TIP3   OH217832   2.433   1.442   1.611  0.6460 -0.4812  0.8298
  722TIP3    H117833   2.453   1.405   1.525 -1.9054 -1.5766  0.6138
  722TIP3    H217834   2.371   1.512   1.593  0.3035 -0.5318  1.7670
  723TIP3   OH217835   1.011   3.540   0.269  0.0592 -0.0641 -0.3735
  723TIP3    H117836   1.059   3.477   0.216 -0.3816 -0.0332 -0.8123
  723TIP3    H217837   0.928   3.496   0.290  0.2571 -0.1029  0.3454
  724TIP3   OH217838   0.495   4.733   0.302  0.5468  0.4328 -0.3081
  724TIP3    H117839   0.578   4.725   0.254  0.5874  0.8773 -0.3121
  724TIP3    H217840   0.471   4.643   0.323  0.1690  0.1646 -1.7908
  725TIP3   OH217841   2.957   4.336   2.464 -0.2468  0.6763  0.1627
  725TIP3    H117842   2.916   4.422   2.460 -1.7225 -0.0236 -0.6079
  725TIP3    H217843   2.979   4.325   2.556  2.8434  3.0959 -0.1252
  726TIP3   OH217844   2.704   3.843   0.940  0.1789 -0.5592 -0.2335
  726TIP3    H117845   2.698   3.772   1.004 -0.1760  0.0010  0.3718
  726TIP3    H217846   2.674   3.920   0.988  3.0505  0.5623 -0.0548
  727TIP3   OH217847   0.858   2.452   1.585  0.5154 -0.6893 -0.4033
  727TIP3    H117848   0.825   2.515   1.650  1.1854 -0.1136 -0.6128
  727TIP3    H217849   0.898   2.382   1.638  0.5744 -0.4934 -0.1892
  728TIP3   OH217850   0.534   3.596   6.751 -0.2504 -0.0271 -0.0536
  728TIP3    H117851   0.450   3.572   6.713 -0.8743 -0.5900  1.5842
  728TIP3    H217852   0.575   3.512   6.773  0.2676  0.2630  0.0988
  729TIP3   OH217853   3.673   2.388   7.313 -0.2760  0.4637  0.3609
  729TIP3    H117854   3.609   2.458   7.298 -0.6926 -0.0087 -0.0483
  729TIP3    H217855   3.648   2.318   7.253 -0.6083 -0.5466  1.6260
  730TIP3   OH217856   5.300   4.145   7.245  0.0082 -0.1530 -0.1011
  730TIP3    H117857   5.356   4.142   7.167 -0.2584 -0.4888 -0.2851
  730TIP3    H217858   5.342   4.209   7.302  0.8995 -0.8121  0.0072
  731TIP3   OH217859   4.086   1.370   7.501  0.5016 -0.7602 -0.3748
  731TIP3    H117860   4.007   1.315   7.497 -0.2739 -0.0333  2.2570
  731TIP3    H217861   4.148   1.319   7.553 -0.5751  0.9906  2.9717
  732TIP3   OH217862   4.820   0.389   1.184  0.3595 -0.3461 -0.2236
  732TIP3    H117863   4.857   0.351   1.264 -1.2802 -1.2582  0.1304
  732TIP3    H217864   4.842   0.326   1.115  1.8639  0.4900 -0.5649
  733TIP3   OH217865   0.576   0.952   6.448  0.0891  0.0149 -0.0706
  733TIP3    H117866   0.580   0.906   6.364 -0.7232  1.0260 -0.6793
  733TIP3    H217867   0.630   1.030   6.436 -1.0867  0.8455 -0.1101
  734TIP3   OH217868   5.084   3.800   1.533 -0.6560  0.3193 -0.3329
  734TIP3    H117869   5.130   3.884   1.529 -1.1274  0.5759 -0.6471
  734TIP3    H217870   5.015   3.809   1.467 -1.0844 -0.0883  0.0565
  735TIP3   OH217871   3.055   3.742   0.683 -0.5992 -0.7381 -0.1240
  735TIP3    H117872   3.033   3.728   0.775  0.0292 -0.1311  0.1229
  735TIP3    H217873   3.072   3.655   0.649  0.6384 -0.8523  0.7198
  736TIP3   OH217874   5.484   3.535   1.724 -0.8191 -0.0796  0.1771
  736TIP3    H117875   5.423   3.576   1.663 -0.4768 -0.1745 -0.2404
  736TIP3    H217876   5.557   3.597   1.730 -0.3495 -0.5617 -0.3721
  737TIP3   OH217877   4.915   2.922   1.105 -0.1197  0.0817 -0.1495
  737TIP3    H117878   4.833   2.888   1.070 -0.1684 -0.8356  0.7997
  737TIP3    H217879   4.971   2.845   1.113  0.7641  0.6665 -0.5802
  738TIP3   OH217880   4.640   2.010   6.185  0.1586  0.1987 -0.0376
  738TIP3    H117881   4.663   2.100   6.206 -0.8753  0.7989 -1.3138
  738TIP3    H217882   4.545   2.011   6.175  0.1814 -0.9084 -0.5983
  739TIP3   OH217883   4.581   0.140   0.393  0.2916 -0.4045 -0.3009
  739TIP3    H117884   4.573   0.185   0.309  1.0215  0.0466 -0.1346
  739TIP3    H217885   4.617   0.054   0.371  2.1245  0.3209 -0.3062
  740TIP3   OH217886   3.214   4.267   5.884  0.0750  0.2890  0.0182
  740TIP3    H117887   3.248   4.235   5.800  0.8768  2.0553 -0.3706
  740TIP3    H217888   3.170   4.348   5.862 -1.0938 -0.0212  1.1095
  741TIP3   OH217889   3.032   1.242   1.912 -0.1306  0.2240  0.1602
  741TIP3    H117890   3.025   1.320   1.857 -0.1716  0.4856  0.5328
  741TIP3    H217891   2.942   1.225   1.941 -0.3175 -0.7121 -0.9459
  742TIP3   OH217892   4.743   0.257   6.489  0.0833 -0.0006 -0.2873
  742TIP3    H117893   4.775   0.222   6.406 -1.2059  0.5189 -1.0354
  742TIP3    H217894   4.751   0.352   6.480 -3.0133  0.2929 -1.1751
  743TIP3   OH217895   0.869   5.736   6.224 -0.3728  0.6101 -0.4148
  743TIP3    H117896   0.802   5.770   6.165 -0.0964  0.7026 -0.6806
  743TIP3    H217897   0.938   5.703   6.166  0.7631  2.3847 -0.1582
  744TIP3   OH217898   1.688   3.568   1.626  0.9116  0.3736  0.0158
  744TIP3    H117899   1.762   3.603   1.676 -0.3405  1.7257  1.0258
  744TIP3    H217900   1.662   3.490   1.674  1.8028 -0.2370 -0.4723
  745TIP3   OH217901   1.800   3.745   7.306  0.3916 -0.5348  0.1785
  745TIP3    H117902   1.841   3.824   7.271  1.1324 -0.5184  1.0621
  745TIP3    H217903   1.760   3.703   7.229 -0.3695  0.8885 -0.2414
  746TIP3   OH217904   3.150   1.528   6.727  0.3861 -0.4373 -0.3526
  746TIP3    H117905   3.137   1.623   6.723 -0.2337 -0.5502 -2.4563
  746TIP3    H217906   3.210   1.515   6.800 -2.1030  1.2261  2.2315
  747TIP3   OH217907   2.210   2.959   6.766 -0.4277 -0.1046 -0.1161
  747TIP3    H117908   2.152   2.888   6.740  1.2924 -1.0526 -1.5364
  747TIP3    H217909   2.243   2.995   6.684  2.3260 -0.7704  0.6166
  748TIP3   OH217910   3.015   5.922   1.175  0.2224 -0.3373  0.1059
  748TIP3    H117911   3.053   5.938   1.261  0.1356 -0.1921  0.1192
  748TIP3    H217912   3.013   5.827   1.166 -1.9727 -0.4771  1.2845
  749TIP3   OH217913   2.535   5.474   0.546  0.1869  0.2112  0.7833
  749TIP3    H117914   2.496   5.511   0.467  2.2364 -0.6299 -0.7065
  749TIP3    H217915   2.570   5.550   0.593 -1.5228  0.7750  1.2217
  750TIP3   OH217916   5.118   5.518   0.298  0.0875  0.4132  0.1839
  750TIP3    H117917   5.201   5.564   0.306 -0.2029  1.3527 -1.6574
  750TIP3    H217918   5.123   5.473   0.213 -0.9423 -0.2421  0.4385
  751TIP3   OH217919   2.186   0.590   0.288 -0.7174  0.8849 -0.0968
  751TIP3    H117920   2.192   0.677   0.327  0.9810 -0.1524  2.2524
  751TIP3    H217921   2.273   0.574   0.250 -0.4473 -0.3336  0.9331
  752TIP3   OH217922   5.351   0.517   0.810  0.0722  0.0112  0.6133
  752TIP3    H117923   5.310   0.599   0.839 -1.3160  0.4046 -2.1611
  752TIP3    H217924   5.277   0.459   0.792  0.9531 -0.9987  0.1618
  753TIP3   OH217925   3.293   6.288   0.624  0.1124  0.2624  0.4157
  753TIP3    H117926   3.212   6.257   0.584  0.5254  0.0474 -0.2875
  753TIP3    H217927   3.330   6.348   0.559  0.0934  1.0239  1.0968
  754TIP3   OH217928   0.444   4.494   0.454 -0.5962  0.0170 -0.2136
  754TIP3    H117929   0.494   4.438   0.514 -0.1611 -0.0828 -0.6638
  754TIP3    H217930   0.356   4.457   0.455 -0.4398 -0.3605 -0.1046
  755TIP3   OH217931   6.071   3.501   7.362 -0.1138  0.1360  0.0113
  755TIP3    H117932   6.154   3.455   7.373 -0.2352 -0.0042  0.3618
  755TIP3    H217933   6.083   3.555   7.284  0.2371 -0.0351 -0.0538
  756TIP3   OH217934   2.804   2.403   2.801 -0.4908  0.3840 -0.2889
  756TIP3    H117935   2.841   2.439   2.721  0.1097  3.3027  1.1676
  756TIP3    H217936   2.709   2.418   2.793 -0.8345 -1.9914 -1.6017
  757TIP3   OH217937   1.924   1.853   6.617 -0.0605  0.4549 -0.2237
  757TIP3    H117938   1.906   1.850   6.711 -1.0828  0.5466 -0.4130
  757TIP3    H217939   1.968   1.770   6.598  1.3553  0.9774  0.5609
  758TIP3   OH217940   0.844   0.493   2.377 -0.1403 -0.4933 -0.3285
  758TIP3    H117941   0.895   0.499   2.459 -2.4098  1.0458  1.0801
  758TIP3    H217942   0.892   0.548   2.315  0.3579  0.2795  0.7058
  759TIP3   OH217943   6.223   3.840   0.535 -0.2281 -0.3923  0.5245
  759TIP3    H117944   6.271   3.889   0.469 -2.7474  0.1393 -1.0560
  759TIP3    H217945   6.230   3.893   0.615  0.8293  0.2073  0.0446
  760TIP3   OH217946   3.049   1.813   2.542  0.0538 -0.0216 -0.2514
  760TIP3    H117947   3.053   1.757   2.465 -1.7290 -0.6386  0.0523
  760TIP3    H217948   3.135   1.854   2.547  0.9101 -1.6052 -1.3248
  761TIP3   OH217949   0.428   0.157   7.208 -0.2480  0.0331 -0.0945
  761TIP3    H117950   0.467   0.076   7.241 -1.3833  0.0356  1.3612
  761TIP3    H217951   0.339   0.133   7.183 -0.1950  0.5803 -0.8513
  762TIP3   OH217952   4.615   3.747   2.358  0.4315  0.4085 -0.4478
  762TIP3    H117953   4.531   3.750   2.312  1.3113 -1.1926 -2.2925
  762TIP3    H217954   4.675   3.795   2.302  1.0042  0.5782  0.2963
  763TIP3   OH217955   4.271   3.553   6.110  0.0155 -0.6954 -0.1411
  763TIP3    H117956   4.283   3.636   6.063  0.0700 -1.4722 -1.5402
  763TIP3    H217957   4.360   3.522   6.127  0.0321 -1.5696 -1.6674
  764TIP3   OH217958   0.948   1.977   1.648  0.4892 -0.9811  0.2711
  764TIP3    H117959   0.888   1.935   1.587  1.7135  0.1998 -1.8543
  764TIP3    H217960   0.907   1.965   1.734 -2.7697 -0.2698 -1.0277
  765TIP3   OH217961   0.012   3.430   7.224 -0.1945 -0.3654 -0.0219
  765TIP3    H117962   0.061   3.496   7.174 -1.1620 -0.5918 -1.3197
  765TIP3    H217963   0.073   3.402   7.292  0.6544  1.0103 -0.1749
  766TIP3   OH217964   1.986   2.877   0.730 -0.5013  0.1117 -0.4401
  766TIP3    H117965   2.005   2.895   0.637 -1.3436 -3.4143 -1.4399
  766TIP3    H217966   1.906   2.826   0.728  0.4062 -1.5792  2.0857
  767TIP3   OH217967   3.627   4.232   0.994 -0.1186  0.4943  0.2627
  767TIP3    H117968   3.622   4.145   1.035 -1.0447  0.1851 -0.4586
  767TIP3    H217969   3.679   4.218   0.915 -0.5359  0.5217 -0.0191
  768TIP3   OH217970   4.512   3.538   7.226 -0.4992 -0.0999  0.4261
  768TIP3    H117971   4.561   3.496   7.154 -0.3268 -0.5240  0.7834
  768TIP3    H217972   4.579   3.557   7.292 -0.3935  1.7452 -0.1719
  769TIP3   OH217973   2.238   0.068   1.239  0.2396  0.6360  0.1680
  769TIP3    H117974   2.245   0.141   1.300 -1.4491 -0.9630  2.4030
  769TIP3    H217975   2.312   0.011   1.260  1.0863  1.2529 -1.0241
  770TIP3   OH217976   2.241   2.839   0.070  0.4850 -0.6423 -0.3971
  770TIP3    H117977   2.204   2.909   0.124  1.0380 -1.6941  1.4607
  770TIP3    H217978   2.309   2.882   0.018  0.7538  0.2338  0.6357
  771TIP3   OH217979   5.199   1.562   1.028 -0.9605  0.4076  0.5706
  771TIP3    H117980   5.140   1.494   0.995 -0.7467  1.0168 -1.1600
  771TIP3    H217981   5.213   1.539   1.120 -2.2221 -0.9277  0.4608
  772TIP3   OH217982   2.145   2.415   2.518 -0.2369  0.3736  0.2728
  772TIP3    H117983   2.239   2.424   2.501 -0.2042 -0.0233  0.2256
  772TIP3    H217984   2.140   2.362   2.598 -0.4208 -0.5867 -0.3485
  773TIP3   OH217985   0.562   4.718   6.769 -0.3169 -0.3253 -0.7012
  773TIP3    H117986   0.614   4.795   6.748  0.4221 -0.8962 -1.0041
  773TIP3    H217987   0.625   4.655   6.805 -0.9246 -0.7587 -0.3650
  774TIP3   OH217988   5.372   2.988   6.249 -0.1553 -0.1731  0.3459
  774TIP3    H117989   5.409   3.033   6.173 -1.2153  2.3654  1.2127
  774TIP3    H217990   5.287   3.030   6.262  0.4746  0.3081  3.6064
  775TIP3   OH217991   1.523   6.183   6.677  0.0421  0.8176 -0.0944
  775TIP3    H117992   1.440   6.153   6.716  0.5980 -1.8616 -0.7818
  775TIP3    H217993   1.499   6.262   6.629 -2.6072 -0.8501 -1.8162
  776TIP3   OH217994   2.754   1.994   0.367  0.2425 -0.5152  0.0470
  776TIP3    H117995   2.747   2.074   0.419  0.3611 -0.7302  0.4036
  776TIP3    H217996   2.831   2.007   0.312 -0.3725  0.0607 -0.6966
  777TIP3   OH217997   0.768   3.443   0.331  0.6530  0.2145 -0.3028
  777TIP3    H117998   0.687   3.479   0.369 -0.1846 -1.2768 -0.6043
  777TIP3    H217999   0.739   3.402   0.249  1.2155 -2.5606  0.7784
  778TIP3   OH218000   0.614   3.704   7.308 -0.3341  0.5620 -0.1107
  778TIP3    H118001   0.605   3.689   7.214  0.5687 -0.1917 -0.0928
  778TIP3    H218002   0.689   3.651   7.334 -2.2940 -1.6239  1.5732
  779TIP3   OH218003   4.822   2.581   0.942 -0.0627  0.8028 -0.2478
  779TIP3    H118004   4.811   2.660   0.890 -1.0694  1.8470  1.4401
  779TIP3    H218005   4.732   2.555   0.966  0.3586  0.2666  0.8101
  780TIP3   OH218006   5.949   4.311   0.065  0.4368 -0.0809 -0.2848
  780TIP3    H118007   6.036   4.332   0.099  0.1723 -0.9478  1.0017
  780TIP3    H218008   5.961   4.305  -0.030  1.7931 -0.2595 -0.1230
  781TIP3   OH218009   1.894   4.563   1.216  0.0080 -0.0875  0.2526
  781TIP3    H118010   1.830   4.517   1.161 -3.3280  0.3572  3.3388
  781TIP3    H218011   1.905   4.648   1.174  0.9409 -1.1627 -1.8650
  782TIP3   OH218012   2.179   0.872   1.556 -0.0954 -0.5295  0.0061
  782TIP3    H118013   2.166   0.966   1.571 -0.5324 -0.3063 -1.5909
  782TIP3    H218014   2.113   0.830   1.611 -1.3142  0.2100 -0.8446
  783TIP3   OH218015   3.437   3.965   6.830  0.3176  0.2299 -0.2013
  783TIP3    H118016   3.345   3.978   6.854  1.0868  2.6652  1.9322
  783TIP3    H218017   3.448   4.019   6.752 -0.0647 -0.0808 -0.4742
  784TIP3   OH218018   4.581   1.771   5.867  0.0920 -0.2905 -0.6244
  784TIP3    H118019   4.535   1.841   5.822 -1.9915 -1.0347  0.2293
  784TIP3    H218020   4.549   1.691   5.825 -0.0526 -0.8718  0.5741
  785TIP3   OH218021   4.080   3.583   7.252 -0.1907 -0.0692  0.3846
  785TIP3    H118022   4.027   3.585   7.331  1.7862 -1.5807  1.8425
  785TIP3    H218023   4.043   3.512   7.199 -0.8659  0.2511  0.4197
  786TIP3   OH218024   5.054   0.821   7.054  0.4892  0.6513 -0.2658
  786TIP3    H118025   5.019   0.905   7.026  0.7178  0.4263 -1.2439
  786TIP3    H218026   4.978   0.765   7.067  0.4285  0.2927 -1.9632
  787TIP3   OH218027   5.110   5.749   7.406  0.5245  0.6636  0.0456
  787TIP3    H118028   5.071   5.798   7.334 -0.4990 -1.5799 -0.9810
  787TIP3    H218029   5.036   5.723   7.461  1.0988  0.6059  0.8100
  788TIP3   OH218030   5.151   1.369   1.944 -0.3004 -0.1651  0.3501
  788TIP3    H118031   5.147   1.463   1.965 -0.6820  0.1592 -1.0907
  788TIP3    H218032   5.061   1.339   1.956 -0.1163 -0.4287  1.1167
  789TIP3   OH218033   4.235   0.949   2.056 -0.0536 -0.2862 -0.1339
  789TIP3    H118034   4.307   0.960   1.994 -1.5424 -1.3300 -2.1959
  789TIP3    H218035   4.272   0.900   2.129  1.8154  1.1125 -0.0678
  790TIP3   OH218036   2.804   4.920   6.870 -0.1533  0.1847  0.4428
  790TIP3    H118037   2.793   4.827   6.852  0.4429 -0.2301  2.0454
  790TIP3    H218038   2.785   4.929   6.963  0.0150  1.6300  0.3632
  791TIP3   OH218039   4.589   2.957   1.409  0.1948  0.2545 -0.5239
  791TIP3    H118040   4.551   2.980   1.494  0.0540  0.9731 -0.7795
  791TIP3    H218041   4.516   2.922   1.359  0.7986 -3.1018  0.6307
  792TIP3   OH218042   1.218   3.531   7.210  0.2014 -0.6458 -0.2218
  792TIP3    H118043   1.204   3.437   7.199 -1.3979 -0.6946  1.6421
  792TIP3    H218044   1.277   3.555   7.138 -0.8418 -2.6948 -1.8870
  793TIP3   OH218045   5.065   1.713   0.238  0.4194 -0.3790 -0.0217
  793TIP3    H118046   5.132   1.779   0.250 -1.5037  1.3910  1.7578
  793TIP3    H218047   5.058   1.669   0.323 -2.0521  0.9460  0.5482
  794TIP3   OH218048   5.213   1.609   0.052 -0.2815 -0.8750 -0.0650
  794TIP3    H118049   5.157   1.562  -0.010  0.0465  0.2912 -1.2961
  794TIP3    H218050   5.151   1.654   0.110 -0.6786  0.2109 -1.2673
  795TIP3   OH218051   3.141   1.605   0.768  0.3506  0.0900 -0.0823
  795TIP3    H118052   3.183   1.567   0.691 -0.6612 -1.7086  0.2104
  795TIP3    H218053   3.054   1.630   0.739 -0.4142 -1.5602  0.6863
  796TIP3   OH218054   6.059   0.288   1.080 -0.0731  0.5470 -0.7184
  796TIP3    H118055   6.027   0.251   0.997 -0.3514  1.1208 -0.8689
  796TIP3    H218056   5.980   0.316   1.126  0.0766  0.1690 -0.2240
  797TIP3   OH218057   5.338   2.859   0.538 -0.4503 -0.0326 -0.5703
  797TIP3    H118058   5.331   2.831   0.629 -0.5343  1.3427 -0.1288
  797TIP3    H218059   5.329   2.955   0.542 -1.0870 -0.0039 -2.0843
  798TIP3   OH218060   4.841   5.731   0.415 -0.5340  0.3552 -0.2254
  798TIP3    H118061   4.782   5.802   0.389 -2.2566 -0.8545  0.2479
  798TIP3    H218062   4.795   5.651   0.392  0.6500 -0.6544  0.7581
  799TIP3   OH218063   1.000   4.492   0.542  0.1954  0.4162 -0.7692
  799TIP3    H118064   1.079   4.455   0.504  0.0650 -1.1162  0.3666
  799TIP3    H218065   0.928   4.443   0.503 -0.1653  1.2751 -1.2122
  800TIP3   OH218066   3.410   4.115   7.579 -0.8374  0.0060  0.0559
  800TIP3    H118067   3.380   4.068   7.656  0.1727  0.4791  0.7560
  800TIP3    H218068   3.342   4.181   7.563 -1.2862 -0.4048  0.2387
  801TIP3   OH218069   5.259   3.022   0.128  0.0875 -0.2970  0.1205
  801TIP3    H118070   5.320   3.065   0.068  0.4271  1.2157  1.4818
  801TIP3    H218071   5.181   3.078   0.127 -0.5443 -1.1494 -0.1055
  802TIP3   OH218072   3.650   6.145   2.104 -0.1861  0.6956  0.6325
  802TIP3    H118073   3.570   6.196   2.094  1.1930  2.4589 -3.1642
  802TIP3    H218074   3.627   6.057   2.075 -0.7868  1.2092 -0.5133
  803TIP3   OH218075   5.710   0.866   2.421  0.0218  0.3502  0.6047
  803TIP3    H118076   5.616   0.853   2.417 -0.0496  0.5172  1.5319
  803TIP3    H218077   5.745   0.780   2.444  0.3024 -0.2566 -1.8497
  804TIP3   OH218078   2.753   0.040   7.336  0.0907  0.2163  0.1897
  804TIP3    H118079   2.791  -0.023   7.276  1.3419  0.0633  1.1038
  804TIP3    H218080   2.679   0.078   7.288  0.6781 -0.3337 -1.1929
  805TIP3   OH218081   1.128   0.963   6.381 -0.0513  0.1952 -0.4651
  805TIP3    H118082   1.180   1.009   6.315  1.2987 -1.2796 -0.4837
  805TIP3    H218083   1.174   0.979   6.463  0.2793 -0.8849 -0.4313
  806TIP3   OH218084   1.699   0.702   1.300  0.2431 -0.4720 -0.0180
  806TIP3    H118085   1.717   0.732   1.389 -0.0592 -2.2003  0.6560
  806TIP3    H218086   1.755   0.626   1.288 -0.2285 -0.6766 -1.0576
  807TIP3   OH218087   5.849   0.684   1.760 -0.2650 -0.4246 -0.2563
  807TIP3    H118088   5.851   0.777   1.737  1.4329 -0.5212 -0.6584
  807TIP3    H218089   5.931   0.669   1.807 -0.0745 -1.9015 -0.9994
  808TIP3   OH218090   1.688   4.554   2.757 -0.4953  0.7938 -0.6162
  808TIP3    H118091   1.745   4.594   2.692  1.2722 -1.1832 -0.3613
  808TIP3    H218092   1.718   4.464   2.764 -0.9233  0.7901  2.5909
  809TIP3   OH218093   5.569   2.638   1.143  0.7333 -0.1339 -0.2256
  809TIP3    H118094   5.610   2.631   1.057 -0.4780 -0.8697 -0.7704
  809TIP3    H218095   5.487   2.589   1.135  0.8963 -0.7649  1.5464
  810TIP3   OH218096   4.305   2.012   6.661  0.1091 -0.4357  0.0126
  810TIP3    H118097   4.344   2.028   6.747 -0.0007  1.8231 -0.3001
  810TIP3    H218098   4.377   1.980   6.607 -0.0237 -2.8524  1.1262
  811TIP3   OH218099   0.219   0.636   7.755 -0.4070 -0.7213  0.1982
  811TIP3    H118100   0.229   0.559   7.699 -0.2079 -1.4651  1.2296
  811TIP3    H218101   0.196   0.706   7.695  0.1006 -1.4277 -0.8585
  812TIP3   OH218102   2.481   4.100   7.023 -0.1985 -0.0492 -0.4072
  812TIP3    H118103   2.521   4.072   6.941  0.8326 -1.1007  0.4151
  812TIP3    H218104   2.525   4.183   7.044 -0.9580  0.5780 -1.2460
  813TIP3   OH218105   5.514   5.762   6.822  0.1029 -0.0951  0.7887
  813TIP3    H118106   5.585   5.817   6.854 -0.2287  0.6189  0.3164
  813TIP3    H218107   5.434   5.810   6.843 -0.1900 -0.3537  0.2945
  814TIP3   OH218108   5.748   4.183   2.008 -0.2152 -0.2697 -0.1701
  814TIP3    H118109   5.676   4.159   1.950 -1.1417 -0.5379  1.0356
  814TIP3    H218110   5.808   4.233   1.953 -1.3926  0.0891 -1.1792
  815TIP3   OH218111   1.271   4.852   1.787  0.6050 -0.5968  0.0142
  815TIP3    H118112   1.310   4.890   1.708 -1.5614  1.3161 -0.2268
  815TIP3    H218113   1.205   4.791   1.754 -0.2798  0.1798  0.3057
  816TIP3   OH218114   1.903   1.584   6.237 -0.9344  0.1911 -0.1383
  816TIP3    H118115   1.919   1.673   6.206  2.5918 -0.4662 -0.6541
  816TIP3    H218116   1.940   1.582   6.325  0.6802 -1.1572 -0.8027
  817TIP3   OH218117   1.549   4.842   2.081 -0.1569 -0.1472 -0.2299
  817TIP3    H118118   1.573   4.925   2.122 -0.1240 -0.6892  0.8922
  817TIP3    H218119   1.531   4.784   2.154  3.7197 -2.3474 -0.7694
  818TIP3   OH218120   1.798   3.602   1.948  0.0788 -0.9088  0.0974
  818TIP3    H118121   1.827   3.579   2.036  1.7620 -2.1654 -0.7188
  818TIP3    H218122   1.862   3.667   1.918 -0.6034 -0.3298 -0.1516
  819TIP3   OH218123   5.648   1.895   6.794  0.2807  0.4146 -0.0012
  819TIP3    H118124   5.667   1.808   6.827  0.9876  0.5154 -0.1311
  819TIP3    H218125   5.554   1.894   6.776  0.2695 -0.2877  0.0790
  820TIP3   OH218126   0.819   1.925   7.756 -0.3649 -0.1397  0.4670
  820TIP3    H118127   0.811   2.013   7.792 -0.5792 -0.5738  1.4905
  820TIP3    H218128   0.911   1.900   7.771 -0.0199  0.2988 -0.7687
  821TIP3   OH218129   0.333   5.841   6.051 -0.1898  0.5086  0.4648
  821TIP3    H118130   0.399   5.810   5.989 -0.0216  0.1449  0.8185
  821TIP3    H218131   0.252   5.798   6.023  0.3400 -1.5368  1.8696
  822TIP3   OH218132   3.973   3.931   7.473 -0.3999 -0.1407  0.0811
  822TIP3    H118133   3.918   3.860   7.505  0.1893 -1.0735 -0.8793
  822TIP3    H218134   4.029   3.890   7.407 -0.2075  1.2721 -0.6829
  823TIP3   OH218135   0.901   0.863   7.584  0.8042  0.7912 -0.5512
  823TIP3    H118136   0.861   0.796   7.529  1.5845  1.0827 -1.5004
  823TIP3    H218137   0.991   0.833   7.598  0.7342  0.9154  0.2536
  824TIP3   OH218138   2.209   2.480   6.689  0.4692  0.2300 -0.3384
  824TIP3    H118139   2.187   2.387   6.692  0.8057  0.1524 -0.2402
  824TIP3    H218140   2.297   2.485   6.725 -0.1230  0.7754  1.0734
  825TIP3   OH218141   4.974   4.217   7.292 -0.3038 -0.0567 -0.3945
  825TIP3    H118142   4.916   4.176   7.356 -0.6134  0.4129 -0.3631
  825TIP3    H218143   4.989   4.305   7.327 -0.9358  0.4058 -1.2424
  826TIP3   OH218144   5.242   4.272   0.955 -0.0701 -0.6581 -0.6630
  826TIP3    H118145   5.296   4.294   0.879  0.1534  1.5735  0.0618
  826TIP3    H218146   5.179   4.344   0.961  0.8846  0.0643  2.1119
  827TIP3   OH218147   3.421   1.698   2.228  0.1057 -0.0587 -0.4256
  827TIP3    H118148   3.413   1.626   2.165  1.1715  0.7133 -1.4777
  827TIP3    H218149   3.509   1.733   2.215 -0.5375  1.7403 -0.2754
  828TIP3   OH218150   5.501   2.554   6.983  0.1718 -0.0341 -0.0644
  828TIP3    H118151   5.555   2.554   6.904 -1.7922  0.1064 -1.4901
  828TIP3    H218152   5.470   2.644   6.991 -1.3714 -0.5073 -0.4164
  829TIP3   OH218153   1.232   1.010   2.488 -0.9385 -0.1279 -0.0006
  829TIP3    H118154   1.303   1.073   2.483 -1.2779  0.4103  1.4048
  829TIP3    H218155   1.160   1.059   2.528 -0.6706 -1.7820  2.7832
  830TIP3   OH218156   5.839   1.857   1.878 -0.3948  0.0016  0.4617
  830TIP3    H118157   5.932   1.869   1.894 -0.4851 -0.8027  1.7160
  830TIP3    H218158   5.808   1.806   1.953 -1.6456 -0.5879 -0.4186
  831TIP3   OH218159   4.017   2.000   6.663 -0.3285  0.1167 -0.4256
  831TIP3    H118160   4.003   1.949   6.743  1.5654  1.1588  0.6393
  831TIP3    H218161   4.112   2.009   6.657 -0.4979  1.1441 -2.1295
  832TIP3   OH218162   3.993   2.011   6.244 -0.2503 -0.0637 -0.5459
  832TIP3    H118163   3.998   2.090   6.298  0.2574 -0.0952 -0.5435
  832TIP3    H218164   3.963   2.043   6.158 -1.2329 -0.0377 -0.2091
  833TIP3   OH218165   4.514   1.905   1.865  0.4136  0.0213  0.1364
  833TIP3    H118166   4.513   1.973   1.932 -0.3044  0.9685 -0.8001
  833TIP3    H218167   4.527   1.824   1.913 -3.1012  0.2840  1.8087
  834TIP3   OH218168   3.879   0.073   0.100  0.4231  0.0556  0.1166
  834TIP3    H118169   3.829   0.100   0.177 -0.0113  1.0532 -0.4913
  834TIP3    H218170   3.913  -0.014   0.122 -0.1477  0.0980  1.2128
  835TIP3   OH218171   4.734   5.285   7.230 -0.1872 -0.4256  0.0499
  835TIP3    H118172   4.655   5.230   7.230  2.6421 -5.0942  2.2619
  835TIP3    H218173   4.735   5.324   7.317  0.0126 -0.5495  0.1039
  836TIP3   OH218174   2.572   2.043   2.827  0.3679 -0.0500 -0.2727
  836TIP3    H118175   2.482   2.076   2.827  0.3188 -0.0144 -2.4964
  836TIP3    H218176   2.567   1.960   2.779  1.4709 -0.1888 -0.1735
  837TIP3   OH218177   3.558   2.950   2.266 -0.1925 -0.1922  0.3940
  837TIP3    H118178   3.622   2.884   2.241  0.5233  0.2098  1.1175
  837TIP3    H218179   3.588   2.982   2.351 -1.9111 -0.7080  1.2484
  838TIP3   OH218180   1.288   0.608   5.597 -0.5492 -0.0833 -0.0372
  838TIP3    H118181   1.345   0.649   5.662 -0.8786  1.5617 -0.7253
  838TIP3    H218182   1.219   0.673   5.582  0.4543  0.4498 -3.2959
  839TIP3   OH218183   6.073   4.822   0.181  0.2667 -0.1209  0.2341
  839TIP3    H118184   6.162   4.819   0.147 -0.6000 -0.6386 -2.2095
  839TIP3    H218185   6.028   4.886   0.125 -1.0832 -0.3901  0.9522
  840TIP3   OH218186   4.217   6.028   7.224 -0.6063  0.0909  0.0427
  840TIP3    H118187   4.159   5.990   7.290 -0.6484  0.8461  0.4434
  840TIP3    H218188   4.223   6.120   7.247 -1.2887  0.5521 -1.5034
  841TIP3   OH218189   1.211   1.690   1.935  0.3605 -0.8493 -0.7287
  841TIP3    H118190   1.292   1.664   1.979 -1.3892 -0.9844  2.8201
  841TIP3    H218191   1.212   1.786   1.937 -1.5101 -0.6606  3.9655
  842TIP3   OH218192   4.807   3.379   7.729  0.2008  0.3211 -0.3476
  842TIP3    H118193   4.759   3.298   7.711  0.3590  0.0644  0.3549
  842TIP3    H218194   4.793   3.395   7.822  0.8036  0.6927 -0.3144
  843TIP3   OH218195   0.800   6.081   1.493  0.3285 -0.5498 -0.7526
  843TIP3    H118196   0.760   6.144   1.433 -0.7683  0.2157  0.7124
  843TIP3    H218197   0.726   6.038   1.535  1.0764 -1.4182 -0.2956
  844TIP3   OH218198   3.246   4.710   0.818 -0.2428 -0.1113  0.3467
  844TIP3    H118199   3.191   4.702   0.740  0.3325  1.2122 -0.2060
  844TIP3    H218200   3.225   4.631   0.869 -1.7154 -0.2639 -0.4344
  845TIP3   OH218201   4.779   5.906   1.655 -0.0596 -0.0388 -0.2135
  845TIP3    H118202   4.820   5.930   1.572 -1.2366 -0.6350 -0.9868
  845TIP3    H218203   4.706   5.967   1.664 -0.4142 -0.4878 -0.0117
  846TIP3   OH218204   1.367   5.007   0.801  0.5864  0.4383 -0.4715
  846TIP3    H118205   1.338   4.925   0.762  3.2178 -0.2358 -1.2381
  846TIP3    H218206   1.372   4.989   0.895 -1.2023  0.5500 -0.3287
  847TIP3   OH218207   2.921   0.556   1.045 -0.7678  0.2678  0.2371
  847TIP3    H118208   2.830   0.539   1.069 -1.3783  0.4932 -1.7408
  847TIP3    H218209   2.918   0.639   0.997  0.6096  0.6900  0.8247
  848TIP3   OH218210   0.708   0.561   5.549  0.5261 -0.0398  0.2658
  848TIP3    H118211   0.771   0.615   5.597 -0.4359  1.3414  0.0408
  848TIP3    H218212   0.755   0.533   5.471  0.9603  0.7611  0.2229
  849TIP3   OH218213   3.094   2.135   1.454  0.4085  0.2019  0.4111
  849TIP3    H118214   3.100   2.208   1.392  2.3707 -0.9519 -0.8927
  849TIP3    H218215   3.181   2.131   1.493  0.1278 -1.0377  0.9361
  850TIP3   OH218216   4.035   3.182   6.181  0.0262 -0.1845  0.0641
  850TIP3    H118217   4.043   3.088   6.164 -0.5971  0.0831 -2.0182
  850TIP3    H218218   3.940   3.198   6.178  0.1681  0.6262 -0.5072
  851TIP3   OH218219   4.233   4.095   1.613  0.4065  0.0145 -0.3768
  851TIP3    H118220   4.159   4.067   1.559  0.9264 -1.2896 -0.4358
  851TIP3    H218221   4.241   4.028   1.680  1.2502  0.3872 -0.0932
  852TIP3   OH218222   5.229   2.901   7.309 -0.2334  0.6952 -0.1699
  852TIP3    H118223   5.249   2.939   7.395  1.3889 -0.1686 -0.1360
  852TIP3    H218224   5.294   2.940   7.251  0.8745 -1.2953 -0.3167
  853TIP3   OH218225   2.307   0.450   1.392 -0.5314 -0.3566 -0.5872
  853TIP3    H118226   2.272   0.467   1.304  0.0533 -0.4413 -0.8454
  853TIP3    H218227   2.271   0.365   1.417 -0.2524 -0.6019 -0.9929
  854TIP3   OH218228   1.398   0.441   6.591 -0.1644  0.1649  0.3172
  854TIP3    H118229   1.309   0.407   6.585 -0.5288  0.9344  1.1475
  854TIP3    H218230   1.453   0.370   6.557 -1.3076  1.2297 -4.5984
  855TIP3   OH218231   1.625   4.964   0.712 -0.2360  0.2814 -0.1957
  855TIP3    H118232   1.652   5.052   0.737 -1.2538  0.7219 -0.6212
  855TIP3    H218233   1.530   4.966   0.713 -0.2981 -1.1141  0.7949
  856TIP3   OH218234   2.783   1.081   6.705 -0.2601  0.4559 -0.2757
  856TIP3    H118235   2.761   1.028   6.629 -1.9555  0.8940 -0.1240
  856TIP3    H218236   2.829   1.021   6.764 -2.5148 -1.0329  0.0841
  857TIP3   OH218237   2.617   0.029   1.725  0.2605 -0.0610  0.0060
  857TIP3    H118238   2.598   0.092   1.655  1.9237 -0.7066 -1.0993
  857TIP3    H218239   2.567  -0.049   1.700  0.9802 -0.3477 -0.5976
  858TIP3   OH218240   0.744   5.951   2.334 -0.0265 -0.6002  0.4868
  858TIP3    H118241   0.781   5.942   2.422  2.6990  0.1984 -0.4901
  858TIP3    H218242   0.735   6.045   2.321  0.8641 -0.6436 -0.5477
  859TIP3   OH218243   0.103   5.648   7.451  0.2518  0.7588  0.3712
  859TIP3    H118244   0.079   5.566   7.494  3.7923  0.0394  1.3167
  859TIP3    H218245   0.042   5.712   7.487 -1.5333 -1.0961  0.8989
  860TIP3   OH218246   3.042   0.478   7.252 -0.7170 -0.2660 -0.3525
  860TIP3    H118247   3.127   0.448   7.284 -0.9808  0.4429  1.0884
  860TIP3    H218248   2.980   0.414   7.286 -1.0523  0.7421  1.0127
  861TIP3   OH218249   3.978   5.524   7.328 -0.1940  0.1561  0.2644
  861TIP3    H118250   4.036   5.458   7.365  1.1275  1.2136  0.1631
  861TIP3    H218251   3.922   5.476   7.267  1.1870 -0.7642 -0.3212
  862TIP3   OH218252   5.562   6.089   7.436 -0.0830 -0.3999 -0.0783
  862TIP3    H118253   5.492   6.053   7.490 -0.4541 -0.4457 -0.5808
  862TIP3    H218254   5.617   6.013   7.415 -0.7284 -0.6496 -0.9328
  863TIP3   OH218255   0.666   3.308   0.601 -0.2130  0.3287  0.2434
  863TIP3    H118256   0.689   3.220   0.570  0.0887 -0.0747  1.5480
  863TIP3    H218257   0.670   3.301   0.696  0.5621  1.9571  0.3583
  864TIP3   OH218258   0.825   4.729   0.554  0.4119 -0.1402 -0.4632
  864TIP3    H118259   0.847   4.789   0.483  1.0967  1.9762  1.4205
  864TIP3    H218260   0.906   4.682   0.573  1.3959  2.2041  1.4948
  865TIP3   OH218261   0.311   6.262   1.514 -0.3161  0.6114 -0.0569
  865TIP3    H118262   0.242   6.204   1.483 -0.9216  1.0558  0.4310
  865TIP3    H218263   0.274   6.350   1.506  0.7410  0.9905 -1.1943
  866TIP3   OH218264   4.652   6.051   7.205 -0.3651  0.2983 -0.0985
  866TIP3    H118265   4.583   6.101   7.248 -0.4027  0.9889 -0.9311
  866TIP3    H218266   4.611   5.966   7.186 -0.9598  0.6672 -0.4959
  867TIP3   OH218267   6.151   0.763   6.421  0.5186 -0.0065  0.2496
  867TIP3    H118268   6.245   0.742   6.422  0.3377 -0.8435  1.2741
  867TIP3    H218269   6.149   0.858   6.411  1.4595 -0.0337 -0.3714
  868TIP3   OH218270   1.463   4.023   2.714 -0.1703  0.0156  0.3703
  868TIP3    H118271   1.496   4.096   2.661  2.4586 -1.1783  0.2173
  868TIP3    H218272   1.470   4.054   2.804  2.8770 -0.6396  0.4523
  869TIP3   OH218273   3.009   0.486   6.755 -0.1826  0.1197  0.1935
  869TIP3    H118274   2.932   0.539   6.773 -0.0691  0.2299  0.3507
  869TIP3    H218275   3.009   0.419   6.824 -0.2893 -0.0460  0.0341
  870TIP3   OH218276   4.278   2.076   1.541  0.0780 -0.1439 -0.1191
  870TIP3    H118277   4.245   1.986   1.540  1.6377 -0.7480  0.2900
  870TIP3    H218278   4.240   2.115   1.619 -0.9623 -0.2955 -0.5378
  871TIP3   OH218279   4.041   3.598   1.207 -0.4532  0.1318  0.4904
  871TIP3    H118280   4.052   3.676   1.152 -0.1551 -1.9761 -2.6554
  871TIP3    H218281   4.113   3.540   1.182 -1.2880 -1.6219  1.9319
  872TIP3   OH218282   2.804   4.696   7.066 -0.2925 -0.1968  0.1685
  872TIP3    H118283   2.816   4.612   7.022  2.3783  0.4922 -0.6214
  872TIP3    H218284   2.794   4.673   7.159 -1.8547 -1.4503 -0.2728
  873TIP3   OH218285   0.779   5.808   1.224  0.4327  0.4394 -0.3070
  873TIP3    H118286   0.697   5.818   1.176 -1.1396 -2.6639  1.4520
  873TIP3    H218287   0.753   5.802   1.316  2.4836 -1.3382  0.2512
  874TIP3   OH218288   1.474   3.191   0.823  0.1410 -0.0233 -0.6961
  874TIP3    H118289   1.400   3.131   0.836  0.4719 -0.5039 -0.9946
  874TIP3    H218290   1.436   3.263   0.773 -0.5731  0.6877  0.8093
  875TIP3   OH218291   2.627   4.441   6.491  0.6436 -0.5661 -0.3688
  875TIP3    H118292   2.701   4.384   6.472 -1.0700 -2.7170 -1.0224
  875TIP3    H218293   2.571   4.435   6.414 -0.1909  1.0752  0.0625
  876TIP3   OH218294   1.698   6.100   6.892 -0.0270 -0.3638  0.7862
  876TIP3    H118295   1.698   6.189   6.928  2.6943  0.3710 -0.7394
  876TIP3    H218296   1.659   6.110   6.805 -0.0573 -0.7241  0.7579
  877TIP3   OH218297   5.691   5.391   0.671 -0.6270  0.3962  0.4361
  877TIP3    H118298   5.691   5.341   0.753  3.1001 -0.3110  0.1533
  877TIP3    H218299   5.765   5.452   0.680 -0.9961  1.2821 -1.8790
  878TIP3   OH218300   5.529   3.944   0.050 -0.1079 -0.4154  0.9197
  878TIP3    H118301   5.606   3.892   0.026  1.0955  1.3744  0.7027
  878TIP3    H218302   5.462   3.879   0.071  0.3551 -2.1193 -2.2240
  879TIP3   OH218303   5.615   2.273   2.121 -0.0156 -0.5404  0.2000
  879TIP3    H118304   5.632   2.364   2.148  1.4414 -1.2557  1.8310
  879TIP3    H218305   5.564   2.236   2.193  0.9545 -1.5289  0.3868
  880TIP3   OH218306   1.082   2.877   6.312  0.3147 -0.9918 -0.2762
  880TIP3    H118307   1.127   2.808   6.262 -2.1854 -2.8099 -0.1595
  880TIP3    H218308   1.067   2.947   6.248  1.9217 -0.9574 -0.6629
  881TIP3   OH218309   3.612   5.266   6.244 -0.2780 -0.1943  0.0677
  881TIP3    H118310   3.672   5.197   6.216  1.0236  0.9098  0.0416
  881TIP3    H218311   3.529   5.243   6.203  0.5269 -0.8867 -1.2336
  882TIP3   OH218312   4.535   6.145   6.178 -0.3627 -0.1840 -0.2695
  882TIP3    H118313   4.482   6.070   6.205 -0.4175  0.2916  0.9943
  882TIP3    H218314   4.614   6.107   6.141 -0.7047 -0.8699 -0.3031
  883TIP3   OH218315   1.913   1.750   6.872 -0.1376  0.1798  0.1699
  883TIP3    H118316   2.009   1.753   6.870  0.0257 -2.4462 -0.0267
  883TIP3    H218317   1.893   1.668   6.918 -2.2746  0.1074 -0.7703
  884TIP3   OH218318   1.610   5.149   7.615  0.3449  0.2050  0.6052
  884TIP3    H118319   1.636   5.084   7.680  2.5887 -1.0139 -1.3234
  884TIP3    H218320   1.693   5.180   7.578 -0.7391  2.8048  0.1274
  885TIP3   OH218321   5.757   3.661   0.401 -0.4001  0.2285  0.2260
  885TIP3    H118322   5.740   3.753   0.381  1.2285  0.9005  1.6933
  885TIP3    H218323   5.852   3.651   0.389 -0.5296 -1.2330  0.2126
  886TIP3   OH218324   5.850   4.910   0.717  0.2278  0.0774 -0.0347
  886TIP3    H118325   5.766   4.868   0.733 -0.0055  0.3966 -0.3810
  886TIP3    H218326   5.907   4.878   0.786  0.7671 -2.7115 -1.6073
  887TIP3   OH218327   0.766   4.508   6.969  0.0661  0.1101 -0.5296
  887TIP3    H118328   0.846   4.504   7.021 -0.4957  1.6832  0.5253
  887TIP3    H218329   0.797   4.516   6.878  1.0563 -2.3367 -0.4868
  888TIP3   OH218330   0.834   2.184   6.526 -0.1384 -0.5525 -0.4048
  888TIP3    H118331   0.808   2.258   6.472  1.2274  0.4597  0.2766
  888TIP3    H218332   0.915   2.152   6.486  1.2725  0.6337  1.3386
  889TIP3   OH218333   0.019   3.598   0.549 -0.2918 -0.1182 -0.2636
  889TIP3    H118334  -0.016   3.686   0.537  1.7172  0.9086  0.7823
  889TIP3    H218335  -0.029   3.563   0.624  0.4193  1.0174  0.7635
  890TIP3   OH218336   2.828   2.248   1.215 -0.1363 -0.4996  0.6759
  890TIP3    H118337   2.825   2.305   1.292 -1.0835 -0.9145  0.9546
  890TIP3    H218338   2.864   2.166   1.247  0.7346 -0.2391  0.3844
  891TIP3   OH218339   6.103   2.534   2.331 -0.2104 -0.1984 -0.4872
  891TIP3    H118340   6.136   2.455   2.374 -0.8015  0.1722  0.6872
  891TIP3    H218341   6.176   2.563   2.276  0.4276 -0.9171 -0.0444
  892TIP3   OH218342   0.706   3.851   5.754 -0.4644 -0.0205 -0.1086
  892TIP3    H118343   0.630   3.796   5.733  0.1391 -0.1793 -2.1795
  892TIP3    H218344   0.754   3.857   5.671  0.4619  2.1380  0.5131
  893TIP3   OH218345   2.276   4.743   7.695 -0.1148  0.1639 -0.5289
  893TIP3    H118346   2.228   4.703   7.622 -1.2380 -0.7177  0.6365
  893TIP3    H218347   2.320   4.819   7.657  1.8621 -1.9308 -2.8223
  894TIP3   OH218348   1.691   1.316   1.782  0.2477  0.0297 -0.3726
  894TIP3    H118349   1.742   1.236   1.772  0.9128  0.3487  0.3737
  894TIP3    H218350   1.651   1.308   1.868  1.8087  1.3035  0.5235
  895TIP3   OH218351   5.317   4.770   6.243  0.1506  0.8398 -0.0139
  895TIP3    H118352   5.234   4.806   6.274  1.0726  0.8585  2.7623
  895TIP3    H218353   5.384   4.816   6.294  1.5811 -2.3266  1.2630
  896TIP3   OH218354   1.286   2.804   6.977 -0.1121  0.0389 -0.3145
  896TIP3    H118355   1.332   2.850   6.907 -0.2372  1.4928  0.5154
  896TIP3    H218356   1.344   2.733   7.002  1.4955  1.5067  0.3403
  897TIP3   OH218357   1.261   6.056   2.042 -0.0462  0.6277 -0.2112
  897TIP3    H118358   1.215   6.099   2.114  0.1819 -0.8162  0.8571
  897TIP3    H218359   1.256   6.117   1.969 -0.2808  2.1478  1.0365
  898TIP3   OH218360   0.242   5.109   7.731 -0.0108 -0.9076  0.4078
  898TIP3    H118361   0.314   5.050   7.710 -0.3904 -1.2305 -0.0005
  898TIP3    H218362   0.213   5.144   7.647  0.2718 -0.0556  0.6530
  899TIP3   OH218363   0.558   2.695   1.163 -0.2151 -0.1507 -0.0117
  899TIP3    H118364   0.482   2.752   1.159  0.4279  0.6557 -1.7617
  899TIP3    H218365   0.592   2.705   1.252 -0.8531  1.2087  0.0950
  900TIP3   OH218366   4.265   0.154   0.874 -0.5367 -0.3696 -0.3950
  900TIP3    H118367   4.199   0.088   0.853  0.4011 -1.9372  1.2694
  900TIP3    H218368   4.345   0.122   0.832 -0.2277  0.1124 -0.1862
  901TIP3   OH218369   2.026   2.096   0.007 -0.0589  0.2501  0.3428
  901TIP3    H118370   1.944   2.048  -0.003 -1.4273  2.6909 -1.4195
  901TIP3    H218371   2.069   2.090  -0.079 -0.3280  2.1209  0.0200
  902TIP3   OH218372   2.842   2.114   2.874  0.0102  0.3028 -0.1659
  902TIP3    H118373   2.803   2.201   2.877 -1.3003 -0.2724 -0.0361
  902TIP3    H218374   2.769   2.055   2.854  0.9663 -0.7094 -0.7944
  903TIP3   OH218375   1.112   1.529   0.520  0.3732 -0.1911  0.2530
  903TIP3    H118376   1.082   1.616   0.545 -2.0218 -0.6713 -0.7469
  903TIP3    H218377   1.120   1.533   0.425  0.0625 -1.1269  0.1840
  904TIP3   OH218378   0.428   4.311   1.713 -0.4440  0.0457  0.1144
  904TIP3    H118379   0.434   4.384   1.774 -0.4003  2.3475 -2.4540
  904TIP3    H218380   0.508   4.261   1.728 -0.4887  0.4468  1.9579
  905TIP3   OH218381   0.838   4.520   2.131  0.1708  0.9454  0.6854
  905TIP3    H118382   0.813   4.531   2.039 -0.9659 -2.3136  0.4709
  905TIP3    H218383   0.762   4.553   2.180 -1.3597 -1.6242  0.2271
  906TIP3   OH218384   0.293   2.202   6.763  0.9978 -0.4269 -0.1028
  906TIP3    H118385   0.203   2.202   6.797  0.6600  1.0613 -0.9107
  906TIP3    H218386   0.324   2.112   6.776 -0.2345 -0.6959  1.1478
  907TIP3   OH218387   5.508   3.248   0.864  0.2458  0.0648 -0.4137
  907TIP3    H118388   5.470   3.283   0.783  0.9958  0.0249 -0.7865
  907TIP3    H218389   5.470   3.302   0.933  2.0713  2.2648 -1.0370
  908TIP3   OH218390   6.205   4.192   7.570 -0.0588 -0.4501  0.6360
  908TIP3    H118391   6.141   4.262   7.583 -0.2177 -0.6606  0.9795
  908TIP3    H218392   6.180   4.151   7.487 -0.2618 -0.4199  0.6833
  909TIP3   OH218393   5.230   3.674   7.258  0.1303 -0.2970  0.1042
  909TIP3    H118394   5.180   3.749   7.225  0.1927 -0.1356  0.3774
  909TIP3    H218395   5.237   3.690   7.352  0.9913 -0.1494  0.0185
  910TIP3   OH218396   0.305   2.685   1.061 -0.5162 -0.0063 -0.1919
  910TIP3    H118397   0.307   2.777   1.087  0.4198 -0.3143  0.9319
  910TIP3    H218398   0.240   2.681   0.991 -2.0307  1.1717  1.0762
  911TIP3   OH218399   6.034   1.078   0.689  0.2168  0.1700 -0.0464
  911TIP3    H118400   5.989   1.085   0.605 -0.4999  1.1414  0.4004
  911TIP3    H218401   6.112   1.026   0.671 -1.3507 -2.0848 -0.7431
  912TIP3   OH218402   1.392   4.261   0.595  0.6002 -0.4786  0.0555
  912TIP3    H118403   1.318   4.200   0.596  1.9204 -2.1282  0.8675
  912TIP3    H218404   1.355   4.342   0.558 -2.0985 -0.6002  2.1226
  913TIP3   OH218405   1.046   5.057   6.546 -0.3375  0.0931  0.3506
  913TIP3    H118406   1.085   4.971   6.529 -0.5313  0.3337 -1.5803
  913TIP3    H218407   1.097   5.092   6.619  0.8497 -0.9933  0.0913
  914TIP3   OH218408   3.196   0.601   7.012 -0.4023  0.0867  0.0866
  914TIP3    H118409   3.142   0.618   6.935 -1.1792  0.7011  0.7524
  914TIP3    H218410   3.194   0.682   7.061  2.7506  0.8393 -0.7865
  915TIP3   OH218411   3.228   3.263   7.408 -0.0160 -0.1019  0.1259
  915TIP3    H118412   3.206   3.336   7.467  1.0295  2.2935 -2.2327
  915TIP3    H218413   3.312   3.231   7.441 -0.8499 -0.8300  1.6465
  916TIP3   OH218414   5.894   6.058   1.958 -0.3296  0.3187  0.2831
  916TIP3    H118415   5.982   6.022   1.973 -0.2607  0.4610  0.2126
  916TIP3    H218416   5.835   5.983   1.971 -0.1440  0.0506 -0.4220
  917TIP3   OH218417   0.045   5.465   2.757  0.4836  0.1108 -0.5073
  917TIP3    H118418   0.073   5.541   2.706 -1.4021  0.7802 -0.6123
  917TIP3    H218419   0.121   5.406   2.755  1.5917  1.5007 -1.3520
  918TIP3   OH218420   2.639   2.581   6.396  0.1041  0.7037  0.1232
  918TIP3    H118421   2.547   2.606   6.402  0.1124  1.6018 -2.4629
  918TIP3    H218422   2.686   2.664   6.389  0.8841  0.1871 -0.8737
  919TIP3   OH218423   4.187   5.111   6.308 -0.0725 -0.3294 -0.0574
  919TIP3    H118424   4.253   5.172   6.274 -0.3127  0.5916  1.0528
  919TIP3    H218425   4.122   5.167   6.350 -0.8384 -1.3046  0.0864
  920TIP3   OH218426   2.423   1.859   0.216  0.7685  0.1540  0.1226
  920TIP3    H118427   2.425   1.841   0.310  0.7224 -0.3979  0.0173
  920TIP3    H218428   2.501   1.913   0.201  0.3445  0.9306  0.6080
  921TIP3   OH218429   3.487   2.886   0.112  0.5190 -0.2191  0.9452
  921TIP3    H118430   3.527   2.903   0.197  1.2845 -0.3105  0.6169
  921TIP3    H218431   3.446   2.800   0.122  0.0246  0.0729  1.4230
  922TIP3   OH218432   2.480   0.493   1.893 -0.0001 -0.7376 -0.1996
  922TIP3    H118433   2.388   0.492   1.920 -0.2864  0.7035 -1.0448
  922TIP3    H218434   2.490   0.413   1.841 -0.8207 -0.8211 -0.2437
  923TIP3   OH218435   1.808   2.045   6.456 -0.7829 -0.1991  0.0074
  923TIP3    H118436   1.832   2.113   6.519 -0.2464  3.5773 -3.8539
  923TIP3    H218437   1.829   1.963   6.501  2.1841  2.2034  3.6431
  924TIP3   OH218438   4.017   3.404   0.325 -0.4604 -0.2069 -0.2579
  924TIP3    H118439   4.081   3.453   0.273 -1.2892  0.3653 -0.7737
  924TIP3    H218440   4.065   3.376   0.402  0.0690  1.3961  0.0330
  925TIP3   OH218441   4.129   1.197   0.895  0.7709  0.0795  0.1149
  925TIP3    H118442   4.084   1.205   0.811 -1.2004  0.5364  1.1663
  925TIP3    H218443   4.174   1.112   0.890  0.2245 -0.1611 -1.1679
  926TIP3   OH218444   3.719   1.593   0.136  0.2395  0.0496 -0.2411
  926TIP3    H118445   3.799   1.554   0.101  1.2972  1.2353  0.7272
  926TIP3    H218446   3.699   1.665   0.076 -0.5248 -0.6695 -0.8715
  927TIP3   OH218447   0.536   0.493   6.943  0.0879 -0.0719 -0.2062
  927TIP3    H118448   0.517   0.568   6.887 -0.9854 -1.0847 -1.2409
  927TIP3    H218449   0.486   0.508   7.023  2.4536  1.9183  1.0522
  928TIP3   OH218450   6.058   3.683   6.596  0.2463  0.1777  0.0339
  928TIP3    H118451   6.032   3.767   6.560 -0.8421 -0.1636 -0.0155
  928TIP3    H218452   6.044   3.620   6.525  0.7855 -0.0927  0.1574
  929TIP3   OH218453   5.771   2.380   6.838  0.0803 -0.4942 -0.0599
  929TIP3    H118454   5.798   2.468   6.814  0.5432 -0.5359  0.2829
  929TIP3    H218455   5.718   2.350   6.764  2.3298 -1.0300 -1.5934
  930TIP3   OH218456   3.241   5.277   6.268  0.4162  0.3296 -0.1191
  930TIP3    H118457   3.251   5.344   6.201 -0.5151 -0.3817 -0.9993
  930TIP3    H218458   3.148   5.280   6.292  1.1370  2.3213  3.0584
  931TIP3   OH218459   0.897   0.537   7.214 -0.1085 -0.5099 -0.0405
  931TIP3    H118460   0.805   0.559   7.206 -0.1918 -0.0556  1.6509
  931TIP3    H218461   0.943   0.620   7.202  0.1713 -0.8603 -1.6496
  932TIP3   OH218462   0.751   4.624   0.186 -0.6743 -0.3811  0.2590
  932TIP3    H118463   0.832   4.589   0.222  0.4532  1.7436 -0.0314
  932TIP3    H218464   0.694   4.548   0.176  1.1375 -1.8882  0.8225
  933TIP3   OH218465   4.168   4.059   6.655  0.0203  0.3435  0.2610
  933TIP3    H118466   4.247   4.038   6.605  1.5719  3.3624  1.1736
  933TIP3    H218467   4.145   4.147   6.628 -1.7533  0.3707  1.6567
  934TIP3   OH218468   2.842   4.198   1.393 -0.0949 -0.1311 -0.0772
  934TIP3    H118469   2.748   4.191   1.380 -0.2329 -0.1450  0.8257
  934TIP3    H218470   2.853   4.188   1.488  0.8150 -0.1669 -0.1813
  935TIP3   OH218471   3.535   5.472   2.259  0.0916  0.0538 -0.3938
  935TIP3    H118472   3.485   5.486   2.179  0.5537  0.1022 -0.6739
  935TIP3    H218473   3.521   5.379   2.280 -1.4127  0.4250  0.4171
  936TIP3   OH218474   2.199   3.135   6.985 -0.0777 -0.1945  0.4668
  936TIP3    H118475   2.210   3.079   6.908 -0.8802  2.1695 -1.5165
  936TIP3    H218476   2.256   3.097   7.051  1.9703 -1.4213 -1.8440
  937TIP3   OH218477   2.196   5.284   6.377 -0.1412 -0.1124 -0.0109
  937TIP3    H118478   2.275   5.231   6.387 -0.4914 -0.4705  0.9703
  937TIP3    H218479   2.229   5.374   6.378  0.3824 -0.2817 -0.9655
  938TIP3   OH218480   1.644   4.178   0.684 -0.3585 -0.1594 -0.1289
  938TIP3    H118481   1.563   4.206   0.640  1.0078 -0.0711 -2.8374
  938TIP3    H218482   1.639   4.083   0.685 -0.6774 -0.1422  0.0972
  939TIP3   OH218483   1.613   6.253   7.157  0.3746 -0.0098  0.0354
  939TIP3    H118484   1.561   6.174   7.147  0.1874  0.0663  0.4258
  939TIP3    H218485   1.549   6.323   7.171  0.4701  0.3848 -1.2821
  940TIP3   OH218486   3.841   5.838   7.629  0.2121 -0.0226 -0.0434
  940TIP3    H118487   3.746   5.837   7.616  0.4625  0.8297 -2.5663
  940TIP3    H218488   3.868   5.927   7.606  1.6830 -0.4525 -0.0918
  941TIP3   OH218489   2.932   0.678   7.067 -0.0105  0.1619  0.1773
  941TIP3    H118490   2.967   0.611   7.125 -1.6596 -0.8568  0.0679
  941TIP3    H218491   2.839   0.656   7.059  0.1603  0.1394 -2.9999
  942TIP3   OH218492   4.569   0.314   6.744  0.1132 -0.3412  0.4806
  942TIP3    H118493   4.545   0.268   6.664  2.1289  1.8829 -1.5881
  942TIP3    H218494   4.620   0.251   6.795 -1.6137 -1.9458  0.2766
  943TIP3   OH218495   2.690   3.048   0.508  0.1936 -0.0562 -0.2443
  943TIP3    H118496   2.700   3.032   0.414  0.0938 -0.6619 -0.1533
  943TIP3    H218497   2.757   3.114   0.528 -0.0859  0.4040 -0.8260
  944TIP3   OH218498   0.808   2.750   7.554 -0.4612 -1.1925 -0.1609
  944TIP3    H118499   0.763   2.733   7.471 -1.8179  0.0399  0.2656
  944TIP3    H218500   0.845   2.666   7.579 -2.4476 -2.2644 -0.6223
  945TIP3   OH218501   3.678   0.940   6.351  0.4622  0.0743 -0.2938
  945TIP3    H118502   3.592   0.898   6.346  1.1309 -1.3368 -0.5700
  945TIP3    H218503   3.672   1.015   6.291 -0.7790  0.4195  0.2258
  946TIP3   OH218504   6.061   1.267   6.390  0.0875  0.2267  0.6978
  946TIP3    H118505   5.992   1.289   6.328 -0.7650 -0.2257  1.4466
  946TIP3    H218506   6.116   1.345   6.394  0.0686  0.3216 -0.4818
  947TIP3   OH218507   5.435   1.728   6.216  0.2116  0.3546  0.0662
  947TIP3    H118508   5.392   1.743   6.131 -1.2919  1.1227  0.9057
  947TIP3    H218509   5.511   1.675   6.196 -1.1389 -1.0906 -1.5407
  948TIP3   OH218510   3.676   3.808   7.435  0.1482  0.3497 -0.5250
  948TIP3    H118511   3.669   3.822   7.530  0.6500  0.0248 -0.4361
  948TIP3    H218512   3.609   3.865   7.398  0.1885  0.7591  0.0064
  949TIP3   OH218513   0.603   1.286   6.160  0.2148  0.0947  0.0140
  949TIP3    H118514   0.693   1.315   6.175  0.6139  0.0482 -2.0836
  949TIP3    H218515   0.612   1.195   6.130 -0.4133  0.5076 -1.4895
  950TIP3   OH218516   0.617   5.836   1.523  0.4527  0.0442  0.0102
  950TIP3    H118517   0.624   5.801   1.612  2.0995 -0.3325 -0.2427
  950TIP3    H218518   0.564   5.915   1.533  1.5708  0.6560  1.5321
  951TIP3   OH218519   3.491   2.647   0.901 -0.5607  0.5727  0.0723
  951TIP3    H118520   3.427   2.612   0.963 -1.4463 -2.5519 -2.3244
  951TIP3    H218521   3.570   2.595   0.916 -0.9998 -0.6949 -1.7567
  952TIP3   OH218522   0.776   5.563   6.614 -0.4460 -0.0978 -0.5006
  952TIP3    H118523   0.745   5.541   6.526  0.2475  0.0324 -0.7866
  952TIP3    H218524   0.804   5.479   6.651  1.8573  0.1595 -1.4580
  953TIP3   OH218525   5.705   3.621   0.975  0.1485  0.1435 -0.0410
  953TIP3    H118526   5.753   3.545   0.941 -0.8509 -1.0685  1.1343
  953TIP3    H218527   5.665   3.590   1.056 -0.7451  1.7765  0.1873
  954TIP3   OH218528   5.114   0.617   0.535 -0.4030  0.3564 -0.3740
  954TIP3    H118529   5.193   0.586   0.579 -1.4902 -2.0581  0.0871
  954TIP3    H218530   5.080   0.685   0.593  0.8366  0.7743 -0.1108
  955TIP3   OH218531   0.099   5.130   6.931  0.6472 -0.4300  0.8370
  955TIP3    H118532   0.060   5.181   6.860  1.6607  0.1362  0.6712
  955TIP3    H218533   0.166   5.187   6.967  0.4701 -0.9005  1.9505
  956TIP3   OH218534   0.078   2.753   6.053  0.0126 -0.2722 -0.2462
  956TIP3    H118535   0.145   2.762   6.120  2.4164 -1.7476 -2.2897
  956TIP3    H218536   0.079   2.837   6.006 -0.0167 -0.0934  0.0686
  957TIP3   OH218537   2.911   0.839   7.432 -0.4761  0.3434 -0.0130
  957TIP3    H118538   2.912   0.852   7.527 -2.0724  0.5493 -0.0053
  957TIP3    H218539   3.002   0.819   7.410 -0.4027 -1.6572  1.8183
  958TIP3   OH218540   5.052   5.322   6.431 -0.5742 -0.5211  0.1225
  958TIP3    H118541   5.097   5.395   6.389  0.2303 -0.3555  1.2067
  958TIP3    H218542   4.966   5.318   6.389  0.3655 -0.7296 -1.9080
  959TIP3   OH218543   3.537   1.517   0.472 -0.4261  0.4464  0.8264
  959TIP3    H118544   3.613   1.558   0.512 -1.0470  1.5369  0.9435
  959TIP3    H218545   3.475   1.505   0.544 -0.6395  0.2308  0.6110
  960TIP3   OH218546   3.753   2.278   2.882 -0.5778 -0.3519  0.2790
  960TIP3    H118547   3.798   2.292   2.799 -1.6693 -0.2306 -0.3037
  960TIP3    H218548   3.707   2.360   2.899 -1.2235 -0.7485  0.4607
  961TIP3   OH218549   3.838   6.107   1.746 -0.5555  0.3591 -0.4639
  961TIP3    H118550   3.836   6.116   1.842  1.6881  0.8643 -0.4154
  961TIP3    H218551   3.754   6.065   1.725 -1.4450  0.9199  1.6286
  962TIP3   OH218552   0.422   5.125   5.799  0.2605  0.4071 -0.3187
  962TIP3    H118553   0.477   5.069   5.745  1.9415  0.0688  1.6176
  962TIP3    H218554   0.418   5.081   5.884 -1.6193  1.2994  0.1181
  963TIP3   OH218555   0.458   0.865   0.051  0.2370 -0.4819  0.8997
  963TIP3    H118556   0.392   0.799   0.031  0.2530  0.0186 -1.0384
  963TIP3    H218557   0.541   0.817   0.047  0.2120 -0.4606  0.0142
  964TIP3   OH218558   3.263   5.679   6.814  0.4240 -0.4792 -0.8068
  964TIP3    H118559   3.223   5.700   6.898  1.5595 -1.1197 -0.0750
  964TIP3    H218560   3.209   5.724   6.750 -1.0356 -0.7532  0.1793
  965TIP3   OH218561   5.841   0.185   1.562  0.4715  0.1265  0.0998
  965TIP3    H118562   5.815   0.277   1.574 -1.8941 -0.3875 -0.7066
  965TIP3    H218563   5.769   0.135   1.599  0.9675 -1.4247 -0.9565
  966TIP3   OH218564   0.082   2.512   5.929 -0.4353  0.1297 -0.2268
  966TIP3    H118565   0.098   2.597   5.969 -2.8782  0.3464  0.4648
  966TIP3    H218566  -0.013   2.501   5.934 -0.1168 -3.1484  0.7861
  967TIP3   OH218567   3.917   3.716   6.858 -0.0170 -0.7459 -0.0096
  967TIP3    H118568   3.843   3.775   6.845  0.2162 -0.4804 -0.1275
  967TIP3    H218569   3.988   3.772   6.890 -0.3909 -1.2792  1.8304
  968TIP3   OH218570   2.477   6.240   1.339  0.0811 -0.1127 -0.0025
  968TIP3    H118571   2.554   6.194   1.373  0.3475  1.6679  2.0261
  968TIP3    H218572   2.513   6.310   1.284 -0.1197  0.0526  0.0726
  969TIP3   OH218573   4.596   0.777   0.747  0.5216  0.4281  0.0887
  969TIP3    H118574   4.501   0.772   0.759  0.5991 -1.0664  0.1669
  969TIP3    H218575   4.614   0.871   0.746 -1.0004  0.7481 -0.2930
  970TIP3   OH218576   1.819   5.300   0.128  0.5336  0.9357 -0.0348
  970TIP3    H118577   1.776   5.325   0.046  0.4655 -0.3830 -0.4298
  970TIP3    H218578   1.869   5.222   0.105  0.0700  0.2231  1.3051
  971TIP3   OH218579   2.498   3.282   7.213  0.1028  0.4687  0.4543
  971TIP3    H118580   2.407   3.297   7.188 -0.5832 -1.6360  1.4195
  971TIP3    H218581   2.522   3.361   7.262 -0.7506  1.6086 -0.8833
  972TIP3   OH218582   2.109   3.971   2.738 -0.6541  0.7149 -0.5897
  972TIP3    H118583   2.169   3.928   2.799 -1.1742 -0.3921 -0.8479
  972TIP3    H218584   2.051   3.902   2.707  1.4884  0.4779 -4.7396
  973TIP3   OH218585   1.623   5.585   0.872  0.0328 -0.3108 -0.7806
  973TIP3    H118586   1.537   5.575   0.912  1.2059 -0.1222  2.0330
  973TIP3    H218587   1.621   5.527   0.796 -2.4699 -0.4983 -0.6525
  974TIP3   OH218588   5.262   5.456   1.610  0.2045  0.5931 -0.3028
  974TIP3    H118589   5.282   5.455   1.516 -0.3342  4.5820 -0.6089
  974TIP3    H218590   5.348   5.465   1.652  0.3282  0.3497 -0.4979
  975TIP3   OH218591   3.629   2.866   1.443  0.0508  0.1969 -0.7886
  975TIP3    H118592   3.724   2.873   1.447 -0.0542  1.8078  0.2127
  975TIP3    H218593   3.602   2.862   1.535 -0.8293 -0.9707 -1.0747
  976TIP3   OH218594   4.767   2.857   1.966 -0.0297  0.0459 -0.0656
  976TIP3    H118595   4.761   2.881   1.874 -0.0565  0.8608  0.1484
  976TIP3    H218596   4.830   2.919   2.004 -1.3111  0.8440  0.8336
  977TIP3   OH218597   4.528   0.536   6.899 -0.3909  0.0143  0.0974
  977TIP3    H118598   4.527   0.480   6.822  0.7479 -0.2518  0.2657
  977TIP3    H218599   4.476   0.489   6.964 -0.7365 -0.1055 -0.2619
  978TIP3   OH218600   2.786   0.265   0.653 -0.1831  0.1769 -0.6345
  978TIP3    H118601   2.841   0.309   0.717 -1.2787  1.4314 -0.4962
  978TIP3    H218602   2.846   0.209   0.603  0.8892  0.1442  0.6348
  979TIP3   OH218603   4.524   5.864   0.986 -1.1241 -0.6054  0.5187
  979TIP3    H118604   4.554   5.844   1.074 -1.6779  0.4205  0.9616
  979TIP3    H218605   4.535   5.958   0.977  0.0246 -0.8368 -0.9504
  980TIP3   OH218606   2.296   2.436   1.671 -0.7427  0.0853 -0.3208
  980TIP3    H118607   2.350   2.393   1.737 -0.3245  2.5751  1.1081
  980TIP3    H218608   2.206   2.426   1.703 -0.6604  0.1482 -0.0690
  981TIP3   OH218609   3.206   3.921   7.389 -0.9479  0.5255  0.3487
  981TIP3    H118610   3.208   3.871   7.470 -0.4340 -1.2809 -0.7325
  981TIP3    H218611   3.188   3.857   7.321  0.3386  1.6980 -1.1869
  982TIP3   OH218612   0.126   0.060   2.633 -0.8894  0.3592  0.9625
  982TIP3    H118613   0.049   0.063   2.689  0.0232  0.4843  2.2854
  982TIP3    H218614   0.139   0.150   2.604 -2.1987  0.0488 -0.6850
  983TIP3   OH218615   0.479   2.679   5.861  0.0891 -0.1024 -0.0795
  983TIP3    H118616   0.461   2.747   5.795  0.4705 -0.2012 -0.2914
  983TIP3    H218617   0.470   2.597   5.813  2.0260 -0.1392 -0.4622
  984TIP3   OH218618   2.819   4.772   2.223  0.2763  0.2691 -0.0717
  984TIP3    H118619   2.871   4.739   2.296  0.5414  0.7304 -0.0469
  984TIP3    H218620   2.815   4.867   2.237  2.9212  0.8324 -2.2621
  985TIP3   OH218621   5.073   4.527   0.267 -0.0643  0.0426 -0.0690
  985TIP3    H118622   5.065   4.568   0.354 -0.3076  0.0607 -0.0987
  985TIP3    H218623   5.090   4.435   0.286  0.6692  0.1846 -0.0014
  986TIP3   OH218624   2.186   2.010   6.992  0.6549  0.5073  0.1074
  986TIP3    H118625   2.240   2.073   7.041  1.8005  0.0102 -0.4939
  986TIP3    H218626   2.218   2.015   6.902  1.2832 -1.4606  0.1791
  987TIP3   OH218627   4.812   5.611   6.075 -0.2955 -0.2120 -0.4015
  987TIP3    H118628   4.835   5.643   5.988 -1.0147  1.2459 -0.0750
  987TIP3    H218629   4.833   5.517   6.072 -1.8647 -0.5624 -2.7018
  988TIP3   OH218630   2.717   2.988   0.250 -0.4193 -0.1200 -0.3291
  988TIP3    H118631   2.665   2.954   0.177 -1.7515 -0.6513  0.8274
  988TIP3    H218632   2.754   3.070   0.216 -2.4531  0.5703 -1.0574
  989TIP3   OH218633   5.243   0.248   1.531 -0.0901  0.0729 -0.1401
  989TIP3    H118634   5.234   0.281   1.620  1.7561 -1.8246  0.8557
  989TIP3    H218635   5.171   0.185   1.522  0.3632 -0.5596  0.4730
  990TIP3   OH218636   3.116   0.411   6.400 -0.3982  0.2758 -0.3208
  990TIP3    H118637   3.156   0.482   6.351  0.6639 -0.8939 -1.1930
  990TIP3    H218638   3.181   0.386   6.465 -0.2811 -0.6389 -0.7657
  991TIP3   OH218639   3.056   1.373   1.394 -0.0642 -0.4394 -0.0936
  991TIP3    H118640   3.134   1.361   1.449  0.8812  0.3971 -1.2130
  991TIP3    H218641   2.983   1.355   1.453  0.9736 -3.5340  0.4414
  992TIP3   OH218642   4.716   5.113   7.521 -0.0054 -0.3312  0.2170
  992TIP3    H118643   4.696   5.203   7.495 -0.5095 -0.6093 -0.3933
  992TIP3    H218644   4.631   5.069   7.522  0.1069 -0.5547  1.5239
  993TIP3   OH218645   0.686   5.579   2.477 -0.4360 -0.6631 -0.0599
  993TIP3    H118646   0.777   5.609   2.467  0.1620 -2.3134  0.1177
  993TIP3    H218647   0.648   5.591   2.390  0.0804 -0.3420 -0.2506
  994TIP3   OH218648   1.767   3.177   0.929 -0.1550 -0.2102  0.4365
  994TIP3    H118649   1.736   3.089   0.948  3.2359 -1.2900  1.7452
  994TIP3    H218650   1.841   3.164   0.868  0.5062  1.6926  0.7517
  995TIP3   OH218651   1.896   0.712   6.273 -0.2273  0.0337 -0.0143
  995TIP3    H118652   1.815   0.675   6.306 -0.1811  1.2624  1.5897
  995TIP3    H218653   1.871   0.759   6.193 -0.7935 -0.8829 -0.3858
  996TIP3   OH218654   0.948   4.674   7.710  0.6611  0.2522  0.7621
  996TIP3    H118655   0.999   4.660   7.789 -0.0698  0.7186  1.3374
  996TIP3    H218656   0.857   4.657   7.737  0.4560 -0.0818 -0.1042
  997TIP3   OH218657   4.419   1.886   1.287 -0.2274  0.5256  0.5699
  997TIP3    H118658   4.461   1.800   1.285  0.2516  0.7555 -1.0234
  997TIP3    H218659   4.477   1.940   1.340  0.3240  0.2688  0.2378
  998TIP3   OH218660   1.312   1.353   0.715  0.4726  0.1941  0.0885
  998TIP3    H118661   1.270   1.282   0.666  1.0004  0.8680 -1.4300
  998TIP3    H218662   1.358   1.403   0.648  1.5770  0.9448  1.3701
  999TIP3   OH218663   4.441   4.280   1.548 -0.0593 -0.2667 -0.4378
  999TIP3    H118664   4.393   4.348   1.500 -1.9847 -2.3816 -1.6826
  999TIP3    H218665   4.377   4.211   1.563  1.9273 -2.0491  0.3561
 1000TIP3   OH218666   4.332   2.247   1.886  0.3748 -0.2415  0.0279
 1000TIP3    H118667   4.408   2.221   1.834  0.1219 -0.2420 -0.3488
 1000TIP3    H218668   4.315   2.172   1.943  1.3747  0.2145  0.9607
 1001TIP3   OH218669   0.866   1.535   0.654  0.0402 -0.4103  0.2391
 1001TIP3    H118670   0.833   1.455   0.696  0.5921 -0.0737  1.3722
 1001TIP3    H218671   0.954   1.512   0.624  0.6573  0.0628  1.5908
 1002TIP3   OH218672   2.167   0.127   2.587  0.2317 -0.1538  0.0146
 1002TIP3    H118673   2.133   0.043   2.556 -2.3089  0.1146  1.7147
 1002TIP3    H218674   2.194   0.110   2.678  1.7690  0.4106 -0.3045
 1003TIP3   OH218675   4.140   3.000   1.193  0.0071  0.4804  0.3662
 1003TIP3    H118676   4.079   3.074   1.191  0.4236  0.8177 -0.1725
 1003TIP3    H218677   4.107   2.940   1.127 -0.4043  0.1185  0.8932
 1004TIP3   OH218678   4.739   3.540   7.396  0.2561  0.0825  0.6093
 1004TIP3    H118679   4.780   3.625   7.385  0.8020 -0.2152  0.3164
 1004TIP3    H218680   4.770   3.509   7.481  0.1481  0.1235  0.6641
 1005TIP3   OH218681   6.110   4.778   6.522  0.1797 -0.5475  0.6728
 1005TIP3    H118682   6.047   4.785   6.451  0.0424 -2.4261  0.5422
 1005TIP3    H218683   6.154   4.863   6.525 -2.3995  0.8657  0.8432
 1006TIP3   OH218684   5.788   2.766   2.620  0.7075  0.3027  0.0488
 1006TIP3    H118685   5.825   2.850   2.645  0.0720  0.6819 -0.2692
 1006TIP3    H218686   5.698   2.768   2.652 -0.1211  0.7868 -2.1642
 1007TIP3   OH218687   4.948   5.977   0.904 -0.5116  0.2325 -0.3392
 1007TIP3    H118688   4.915   5.887   0.911 -2.8222  0.9377 -1.2100
 1007TIP3    H218689   5.027   5.969   0.850 -0.4538 -1.3021 -0.0768
 1008TIP3   OH218690   4.773   1.100   0.536  0.4912  0.9986  0.5015
 1008TIP3    H118691   4.697   1.082   0.591  0.5216  0.6563  0.4337
 1008TIP3    H218692   4.825   1.020   0.539  1.5987  1.7347  1.7236
 1009TIP3   OH218693   2.544   2.989   6.254  0.4424 -0.8136 -0.5794
 1009TIP3    H118694   2.511   3.068   6.297  0.4566 -0.8866 -0.4327
 1009TIP3    H218695   2.470   2.955   6.205  0.5097 -0.5627 -0.8579
 1010TIP3   OH218696   6.225   5.185   1.259 -0.1620  0.1637  0.1021
 1010TIP3    H118697   6.139   5.217   1.287 -0.7164 -0.4948 -0.7934
 1010TIP3    H218698   6.258   5.136   1.335 -0.4506  0.6529  0.5481
 1011TIP3   OH218699   5.865   5.160   7.528  0.2635 -0.2372 -0.1852
 1011TIP3    H118700   5.879   5.169   7.433  0.9474  2.2428  0.0653
 1011TIP3    H218701   5.770   5.150   7.537  0.3962 -3.1735 -1.2054
 1012TIP3   OH218702   5.592   4.815   0.742 -0.0987 -0.3615  0.3613
 1012TIP3    H118703   5.605   4.739   0.798 -1.2299  0.5915  1.9889
 1012TIP3    H218704   5.563   4.884   0.801 -0.3723  0.9822 -1.2636
 1013TIP3   OH218705   1.724   3.940   7.735  0.1495 -0.0639  0.6013
 1013TIP3    H118706   1.678   3.910   7.656  1.8882 -0.0179 -0.4852
 1013TIP3    H218707   1.748   3.859   7.780 -2.4848 -0.0903  2.1726
 1014TIP3   OH218708   3.409   5.507   1.122 -0.1376 -0.1850 -0.4748
 1014TIP3    H118709   3.353   5.585   1.126 -0.3392 -0.3337 -0.3854
 1014TIP3    H218710   3.422   5.491   1.029  1.8543  1.3480 -0.5196
 1015TIP3   OH218711   2.681   1.234   7.092 -0.4331 -0.2974  0.5657
 1015TIP3    H118712   2.758   1.289   7.104 -1.3961  1.0530  0.8633
 1015TIP3    H218713   2.715   1.149   7.066  1.0757  0.7433 -1.0835
 1016TIP3   OH218714   2.355   3.059   1.052 -0.1973  0.3139  0.2774
 1016TIP3    H118715   2.300   3.138   1.050  0.3410  0.6926 -0.0948
 1016TIP3    H218716   2.329   3.010   0.974 -1.4990 -0.5670  1.2384
 1017TIP3   OH218717   4.648   4.140   6.562 -0.0284  0.4711 -0.8679
 1017TIP3    H118718   4.647   4.180   6.475 -0.7969 -0.7339 -1.4418
 1017TIP3    H218719   4.562   4.099   6.570  0.4729 -0.4540 -0.0349
 1018TIP3   OH218720   4.785   3.825   6.814 -0.0270  0.0500 -0.5983
 1018TIP3    H118721   4.755   3.773   6.889 -2.4678  0.9290 -0.8628
 1018TIP3    H218722   4.755   3.776   6.738  1.8961 -0.5250 -1.0126
 1019TIP3   OH218723   3.956   1.489   0.048  0.0233 -0.0298  0.3537
 1019TIP3    H118724   4.013   1.478   0.124  0.6905  0.8885  0.0030
 1019TIP3    H218725   3.929   1.400   0.025 -0.8403 -0.2702  2.1396
 1020TIP3   OH218726   5.916   1.476   7.392 -0.0223 -0.5397 -0.3586
 1020TIP3    H118727   5.923   1.387   7.428  0.0193 -0.3713  0.0563
 1020TIP3    H218728   5.959   1.471   7.307 -2.0521 -1.4950 -1.3990
 1021TIP3   OH218729   2.101   1.163   7.710 -0.9074  0.1060 -0.7384
 1021TIP3    H118730   2.152   1.238   7.741 -1.3264  0.3769 -0.7052
 1021TIP3    H218731   2.010   1.191   7.718 -1.1872 -1.2160  1.4382
 1022TIP3   OH218732   2.239   4.937   6.598 -0.3448  0.4031  0.0481
 1022TIP3    H118733   2.318   4.919   6.548  0.0777  0.0642  0.8041
 1022TIP3    H218734   2.183   4.988   6.540 -0.0466 -0.3330 -0.8983
 1023TIP3   OH218735   0.017   5.954   6.277 -0.4781 -1.1157  0.4933
 1023TIP3    H118736  -0.006   6.040   6.241 -2.2204 -1.2252  1.2178
 1023TIP3    H218737   0.017   5.895   6.202 -0.0093 -0.6211  0.0995
 1024TIP3   OH218738   1.726   6.195   1.794 -0.4865 -0.3297 -0.2335
 1024TIP3    H118739   1.700   6.285   1.815 -0.4470 -0.9340  2.9282
 1024TIP3    H218740   1.770   6.201   1.709  0.7392  2.8536  0.5066
 1025TIP3   OH218741   3.911   0.986   6.969  0.2486 -0.2883 -0.3091
 1025TIP3    H118742   3.896   1.048   6.898  0.1337  0.9970  0.7953
 1025TIP3    H218743   3.947   1.039   7.040  0.8759 -1.6289  0.4143
 1026TIP3   OH218744   0.356   4.754   1.608 -0.7360  0.1586  0.3194
 1026TIP3    H118745   0.308   4.728   1.687  0.9137  0.9654  1.6609
 1026TIP3    H218746   0.407   4.830   1.636  0.8301 -0.2839 -1.1989
 1027TIP3   OH218747   0.507   1.382   2.167  0.2903  0.0655  0.1416
 1027TIP3    H118748   0.587   1.415   2.207  0.1781  1.6820 -0.8813
 1027TIP3    H218749   0.488   1.300   2.214  1.4509  0.6576  1.7025
 1028TIP3   OH218750   5.024   4.329   6.611  0.0759  0.6986 -0.6391
 1028TIP3    H118751   5.078   4.252   6.630  2.3098  1.7547 -2.1898
 1028TIP3    H218752   4.948   4.320   6.668  1.5645 -1.2634  1.2089
 1029TIP3   OH218753   2.863   1.409   2.464 -0.3410 -0.5312 -0.4445
 1029TIP3    H118754   2.946   1.437   2.501  0.8763 -1.7512 -2.1261
 1029TIP3    H218755   2.827   1.349   2.530 -0.4028  0.7582  0.7348
 1030TIP3   OH218756   1.344   6.178   1.297 -0.2540 -0.6262  0.4301
 1030TIP3    H118757   1.375   6.258   1.255 -0.3414 -0.9069 -0.1817
 1030TIP3    H218758   1.250   6.177   1.281 -0.6981  0.4124  2.5966
 1031TIP3   OH218759   4.543   1.997   0.619  0.1805 -0.3294 -0.8380
 1031TIP3    H118760   4.516   2.065   0.557 -0.7926 -1.5819 -1.8377
 1031TIP3    H218761   4.568   1.922   0.564 -0.0571 -1.2475  0.2680
 1032TIP3   OH218762   1.057   5.558   7.205 -0.1994  0.0348  0.0725
 1032TIP3    H118763   1.038   5.596   7.119 -1.1821 -1.3846 -0.3783
 1032TIP3    H218764   1.024   5.468   7.199  0.3057 -0.2913  1.7245
 1033TIP3   OH218765   2.212   2.081   7.547  0.4205 -0.2380  0.3382
 1033TIP3    H118766   2.280   2.054   7.485  0.5284  1.2044 -0.2139
 1033TIP3    H218767   2.255   2.079   7.632  0.4045 -1.7891  0.3346
 1034TIP3   OH218768   2.318   1.624   1.082 -0.6651  0.7140 -0.2966
 1034TIP3    H118769   2.273   1.703   1.112 -0.3695  0.9926 -0.5768
 1034TIP3    H218770   2.299   1.619   0.988 -1.7835 -0.2869 -0.0289
 1035TIP3   OH218771   0.024   1.933   5.927 -0.3489 -0.6936  0.3230
 1035TIP3    H118772  -0.039   1.861   5.919  0.3944 -1.4581  1.0807
 1035TIP3    H218773   0.110   1.890   5.925  0.1901  0.3855 -1.3179
 1036TIP3   OH218774   1.157   2.524   1.558  0.6414 -0.3104  0.2349
 1036TIP3    H118775   1.197   2.438   1.548  0.5069 -0.5940  1.7742
 1036TIP3    H218776   1.064   2.509   1.539  0.6783 -0.4333  0.1495
 1037TIP3   OH218777   1.449   0.003   0.576  0.1545 -1.1097 -0.4662
 1037TIP3    H118778   1.461   0.083   0.627 -0.1383 -0.5742 -1.2356
 1037TIP3    H218779   1.501   0.016   0.497  0.9799 -2.1272 -0.1212
 1038TIP3   OH218780   5.521   1.968   0.170 -0.2592  0.2549  0.1802
 1038TIP3    H118781   5.579   2.041   0.151 -0.3315  0.2992  0.1310
 1038TIP3    H218782   5.553   1.896   0.115 -0.0064  0.1614  0.4493
 1039TIP3   OH218783   4.266   0.125   1.306 -0.0502  0.4864  0.2707
 1039TIP3    H118784   4.218   0.205   1.328 -0.0361  0.5138  0.2055
 1039TIP3    H218785   4.199   0.067   1.269  0.3956  1.5932 -2.6159
 1040TIP3   OH218786   2.424   5.280   6.136 -0.0757 -0.3981  0.9013
 1040TIP3    H118787   2.341   5.328   6.145 -0.4528 -0.7845 -0.2643
 1040TIP3    H218788   2.429   5.225   6.215  0.1538  1.1953  2.0455
 1041TIP3   OH218789   3.917   1.530   6.529 -0.0377 -0.4000  0.2759
 1041TIP3    H118790   3.850   1.539   6.597  3.2328  1.0653  3.7228
 1041TIP3    H218791   3.967   1.453   6.556  1.7546  0.6111 -0.0107
 1042TIP3   OH218792   2.554   3.078   7.641  0.3191 -0.2564 -0.0789
 1042TIP3    H118793   2.545   3.161   7.594  1.0166 -0.9302 -1.4629
 1042TIP3    H218794   2.471   3.033   7.628 -0.2951  0.4379  1.1910
 1043TIP3   OH218795   2.336   2.527   0.377  0.0727 -0.4858  0.2419
 1043TIP3    H118796   2.429   2.523   0.352  0.8935  1.0312  2.6913
 1043TIP3    H218797   2.291   2.552   0.296  1.5943 -2.3828 -1.2852
 1044TIP3   OH218798   2.196   1.565   0.850  0.0306  0.0025  0.3013
 1044TIP3    H118799   2.113   1.610   0.862 -1.0218 -2.2113  2.0345
 1044TIP3    H218800   2.181   1.505   0.777  0.0291 -0.5565  0.7572
 1045TIP3   OH218801   4.893   4.557   0.520 -0.1498  0.3653 -0.3951
 1045TIP3    H118802   4.950   4.556   0.597 -0.5968 -1.5545 -0.0375
 1045TIP3    H218803   4.806   4.575   0.554 -0.2063  0.4347 -0.5736
 1046TIP3   OH218804   4.813   5.446   6.745 -0.0380  0.3241 -0.1312
 1046TIP3    H118805   4.861   5.432   6.827  0.8999  0.0842 -0.7163
 1046TIP3    H218806   4.854   5.523   6.706  0.0067 -0.0009 -0.7358
 1047TIP3   OH218807   2.316   3.323   0.595  0.4745  0.0476  0.0866
 1047TIP3    H118808   2.348   3.331   0.685 -0.1849 -1.9308  0.5478
 1047TIP3    H218809   2.242   3.262   0.601 -1.7134  2.3791 -1.3211
 1048TIP3   OH218810   1.270   1.198   6.987 -0.5005 -0.4352  0.1137
 1048TIP3    H118811   1.258   1.104   7.004  0.5123 -0.4802  0.6830
 1048TIP3    H218812   1.331   1.227   7.056 -1.2120  0.7590  0.2686
 1049TIP3   OH218813   0.870   2.969   1.565  0.0545  0.2970 -0.0723
 1049TIP3    H118814   0.794   3.026   1.549 -0.1719 -0.1180 -0.5211
 1049TIP3    H218815   0.841   2.883   1.534  0.1265 -0.2322  1.2878
 1050TIP3   OH218816   4.046   2.911   6.144  0.1677 -0.6834 -0.5308
 1050TIP3    H118817   4.010   2.824   6.127 -0.7332 -0.4926  0.3927
 1050TIP3    H218818   4.135   2.894   6.174  0.2896 -1.2318 -1.1623
 1051TIP3   OH218819   6.237   4.613   7.420  0.5039  0.1748  0.1307
 1051TIP3    H118820   6.163   4.555   7.405  0.6660 -0.5670  1.9310
 1051TIP3    H218821   6.288   4.570   7.488  1.7605  1.4296  0.0358
 1052TIP3   OH218822   4.505   5.176   0.118 -0.0244  0.9689  0.0512
 1052TIP3    H118823   4.419   5.182   0.076 -0.9149  1.0335  1.7783
 1052TIP3    H218824   4.524   5.082   0.120 -1.5137  0.6407  2.3217
 1053TIP3   OH218825   3.628   2.567   0.134  0.4476 -0.7412  0.2759
 1053TIP3    H118826   3.654   2.481   0.101  2.5971 -0.8162  1.9164
 1053TIP3    H218827   3.592   2.549   0.221  2.3618  0.0582  1.3135
 1054TIP3   OH218828   0.326   4.407   6.465  0.5577 -0.1862  0.5025
 1054TIP3    H118829   0.274   4.346   6.413  0.9694 -0.3173  0.2393
 1054TIP3    H218830   0.367   4.353   6.533 -0.5069  0.0826  1.4004
 1055TIP3   OH218831   2.333   0.239   2.865 -0.2659  0.3147 -0.6411
 1055TIP3    H118832   2.340   0.335   2.865 -0.3504  0.3225 -1.1111
 1055TIP3    H218833   2.410   0.210   2.816 -1.7526  0.2700 -3.0978
 1056TIP3   OH218834   5.577   6.130   6.671  0.5727 -0.4076  0.4998
 1056TIP3    H118835   5.589   6.223   6.649  1.4975 -1.1677 -2.7199
 1056TIP3    H218836   5.487   6.124   6.704  0.0417  1.4424 -0.4870
 1057TIP3   OH218837   2.387   4.408   7.525 -0.2942  0.1619 -0.5084
 1057TIP3    H118838   2.432   4.325   7.511  0.7333  0.7800 -0.9544
 1057TIP3    H218839   2.396   4.455   7.442 -1.5957  0.3912 -0.5477
 1058TIP3   OH218840   3.381   0.236   2.214 -0.2153  0.4654 -0.0897
 1058TIP3    H118841   3.296   0.247   2.257 -0.4309  0.7679 -0.5768
 1058TIP3    H218842   3.364   0.258   2.122  0.3870  0.5020 -0.1971
 1059TIP3   OH218843   0.072   5.880   1.968  0.5655 -0.1881 -0.1549
 1059TIP3    H118844  -0.002   5.939   1.976  1.7557  1.3672 -0.2079
 1059TIP3    H218845   0.098   5.862   2.059 -0.0007 -0.9243 -0.1302
 1060TIP3   OH218846   1.046   0.096   6.253  0.0719  0.3189 -0.4382
 1060TIP3    H118847   0.983   0.152   6.298 -1.6826 -1.2669 -0.8226
 1060TIP3    H218848   0.994   0.042   6.194  1.5216 -2.4647  0.6435
 1061TIP3   OH218849   2.456   3.581   2.051  0.1796  0.2570  0.3709
 1061TIP3    H118850   2.444   3.533   2.133 -0.3324 -0.0861  0.1092
 1061TIP3    H218851   2.406   3.530   1.987 -1.9036  2.0696  0.4201
 1062TIP3   OH218852   2.863   3.485   2.476 -0.4163 -0.4256  0.2813
 1062TIP3    H118853   2.777   3.508   2.513  0.7114  0.9627  2.2182
 1062TIP3    H218854   2.925   3.541   2.524  1.7338 -2.3613 -0.0976
 1063TIP3   OH218855   1.863   3.277   6.755  0.2454  0.9090 -0.4756
 1063TIP3    H118856   1.937   3.241   6.706 -1.1945 -1.2061 -1.2685
 1063TIP3    H218857   1.887   3.265   6.847  0.5965 -0.4952 -0.7265
 1064TIP3   OH218858   4.012   1.488   1.866  0.4053 -0.5581  0.2412
 1064TIP3    H118859   3.984   1.443   1.786 -1.5735  0.0521  0.5483
 1064TIP3    H218860   3.985   1.429   1.937 -1.8830  0.8343  0.6297
 1065TIP3   OH218861   0.582   5.703   2.240 -0.4511 -0.6485 -0.5202
 1065TIP3    H118862   0.624   5.777   2.283  0.2999 -0.6293 -1.2567
 1065TIP3    H218863   0.490   5.728   2.232 -0.2893  0.0059 -0.3613
 1066TIP3   OH218864   4.569   1.465   5.876 -0.2924 -0.0862 -0.3036
 1066TIP3    H118865   4.621   1.474   5.796  0.3823 -0.0531  0.1390
 1066TIP3    H218866   4.519   1.384   5.862  0.0912 -0.2749 -0.6070
 1067TIP3   OH218867   3.183   4.299   0.757  0.2619 -0.2956 -0.1282
 1067TIP3    H118868   3.179   4.327   0.849 -2.3061  1.0983 -0.5583
 1067TIP3    H218869   3.110   4.238   0.748 -0.4574  0.7259 -1.5531
 1068TIP3   OH218870   2.294   0.194   7.227 -0.2021  0.4829 -0.5670
 1068TIP3    H118871   2.220   0.173   7.170 -0.6592 -0.8988  0.4694
 1068TIP3    H218872   2.268   0.274   7.272 -1.4804 -0.4423  0.4163
 1069TIP3   OH218873   0.748   5.152   6.381 -0.3988  0.1253  0.2053
 1069TIP3    H118874   0.819   5.198   6.337 -0.5799  0.7345  0.5360
 1069TIP3    H218875   0.689   5.222   6.410 -1.0734 -0.3604  0.0346
 1070TIP3   OH218876   5.687   2.917   7.245 -0.0816 -0.1614 -0.3762
 1070TIP3    H118877   5.782   2.925   7.247  0.1009 -1.8606 -0.6520
 1070TIP3    H218878   5.667   2.894   7.154 -0.9157  1.5662 -0.6649
 1071TIP3   OH218879   0.249   4.348   0.619 -0.2860  0.1082  0.2978
 1071TIP3    H118880   0.222   4.257   0.602 -1.1228  0.1878  1.1539
 1071TIP3    H218881   0.188   4.401   0.569  0.3279  0.2118 -0.3629
 1072TIP3   OH218882   1.322   4.473   1.743 -0.1517 -0.1990  0.4329
 1072TIP3    H118883   1.264   4.420   1.688  1.0763 -0.4112 -0.7174
 1072TIP3    H218884   1.401   4.484   1.691  0.1140  1.7427  1.1473
 1073TIP3   OH218885   3.315   0.184   6.131  0.2616 -0.3703 -0.3738
 1073TIP3    H118886   3.349   0.113   6.076 -1.1385 -0.0321 -1.7497
 1073TIP3    H218887   3.381   0.253   6.126  0.0150 -0.2081 -1.9692
 1074TIP3   OH218888   2.963   1.474   6.218 -0.1306  0.1452 -0.1675
 1074TIP3    H118889   3.012   1.399   6.183  0.7983  0.4190  0.5171
 1074TIP3    H218890   3.024   1.517   6.278 -0.5981  1.5468 -0.6536
 1075TIP3   OH218891   2.327   5.414   6.650  0.7672 -0.3961  0.2853
 1075TIP3    H118892   2.312   5.430   6.557 -0.1361 -2.9453 -0.0864
 1075TIP3    H218893   2.414   5.375   6.655  0.4272 -1.1838  0.3402
 1076TIP3   OH218894   4.747   4.314   1.649  0.1215  0.0809 -0.1433
 1076TIP3    H118895   4.768   4.406   1.631 -0.0330  0.2681  0.5676
 1076TIP3    H218896   4.661   4.300   1.610 -0.3136  0.5409  0.6124
 1077TIP3   OH218897   0.732   0.177   7.352 -0.6835 -0.0640 -0.3754
 1077TIP3    H118898   0.753   0.207   7.264 -0.2719  1.0315  0.0856
 1077TIP3    H218899   0.636   0.166   7.351 -0.9065  1.6740 -0.4536
 1078TIP3   OH218900   2.766   1.006   1.626 -0.7125  0.0862 -0.1312
 1078TIP3    H118901   2.771   1.086   1.678  1.9945  0.4482 -0.8056
 1078TIP3    H218902   2.729   0.941   1.686 -1.5710  1.4596  0.8859
 1079TIP3   OH218903   2.805   2.131   6.756  0.0795  0.0078  0.2313
 1079TIP3    H118904   2.714   2.105   6.769  0.3584 -1.1620 -0.0881
 1079TIP3    H218905   2.813   2.143   6.661  0.0146  1.1023  0.3466
 1080TIP3   OH218906   5.295   0.854   7.326  0.8690  0.1605 -0.4269
 1080TIP3    H118907   5.319   0.861   7.234 -0.7987  2.6014 -0.7805
 1080TIP3    H218908   5.346   0.923   7.369  2.1213 -1.3581  0.6750
 1081TIP3   OH218909   4.416   5.780   0.374  0.4763  0.4679 -0.2588
 1081TIP3    H118910   4.351   5.758   0.308  0.7192  0.0380 -0.3519
 1081TIP3    H218911   4.434   5.698   0.419 -0.3343  0.9047  0.9294
 1082TIP3   OH218912   0.617   0.818   0.948  0.1041 -0.1108 -0.1782
 1082TIP3    H118913   0.580   0.746   0.999  1.0740 -0.7750 -0.3777
 1082TIP3    H218914   0.686   0.854   1.004  0.7985 -0.4820 -0.7743
 1083TIP3   OH218915   2.326   4.162   6.459  0.2684 -0.1365  0.1336
 1083TIP3    H118916   2.240   4.189   6.429  0.7803 -0.1652 -1.4286
 1083TIP3    H218917   2.349   4.226   6.527 -0.4784  0.5738 -0.2704
 1084TIP3   OH218918   0.798   1.263   1.181  0.3912  0.1550 -0.2259
 1084TIP3    H118919   0.771   1.309   1.260 -0.4425  0.6097 -0.7647
 1084TIP3    H218920   0.751   1.180   1.185 -1.2375  0.9871 -1.2138
 1085TIP3   OH218921   1.627   4.793   6.633  0.4347  0.1593 -0.2657
 1085TIP3    H118922   1.574   4.868   6.660 -0.9780 -1.2459  1.0886
 1085TIP3    H218923   1.604   4.779   6.541 -2.0631 -0.7272  0.4116
 1086TIP3   OH218924   2.321   5.104   7.340 -0.0170 -0.1754 -0.4487
 1086TIP3    H118925   2.270   5.110   7.259  0.7214  0.0353 -0.9044
 1086TIP3    H218926   2.279   5.032   7.389 -0.9190  0.1729 -0.6793
 1087TIP3   OH218927   1.106   5.844   0.607 -0.4806 -0.1051  1.0670
 1087TIP3    H118928   1.044   5.846   0.681  0.1114  1.3237  1.5623
 1087TIP3    H218929   1.174   5.783   0.634 -0.0045  0.7865  1.9593
 1088TIP3   OH218930   3.143   4.076   6.110 -0.0905 -0.3325  0.4405
 1088TIP3    H118931   3.111   4.128   6.184 -1.4199 -1.1327  0.4612
 1088TIP3    H218932   3.180   4.140   6.049 -3.5977  0.9453 -0.5449
 1089TIP3   OH218933   4.533   0.366   0.677 -0.2098 -0.1931  0.5341
 1089TIP3    H118934   4.505   0.274   0.680 -0.8336 -0.0395 -0.0804
 1089TIP3    H218935   4.465   0.413   0.726  0.1853 -0.0728  0.9719
 1090TIP3   OH218936   0.639   3.352   6.470  0.1564  0.0917  0.0887
 1090TIP3    H118937   0.686   3.432   6.445 -0.7801  0.7975  0.4831
 1090TIP3    H218938   0.563   3.351   6.412  1.9714 -2.5136 -2.4849
 1091TIP3   OH218939   4.855   6.216   7.075 -0.6769  0.5189 -0.4176
 1091TIP3    H118940   4.904   6.147   7.030 -0.2188  1.6528 -1.7027
 1091TIP3    H218941   4.771   6.174   7.098 -1.2366  0.0726 -3.0105
 1092TIP3   OH218942   0.381   2.435   0.810 -0.3527 -0.3524 -0.3725
 1092TIP3    H118943   0.299   2.462   0.853 -0.6226 -1.2109 -0.3336
 1092TIP3    H218944   0.446   2.497   0.842 -0.9811  0.3282 -0.3778
 1093TIP3   OH218945   2.768   3.336   7.067  0.5167 -0.0489 -0.0991
 1093TIP3    H118946   2.754   3.269   7.001  0.7406 -1.4624  1.2427
 1093TIP3    H218947   2.683   3.345   7.111  0.9675 -0.9219  1.0140
 1094TIP3   OH218948   5.369   1.912   1.659  0.4738  0.1386  0.1995
 1094TIP3    H118949   5.351   1.959   1.741  2.4447  0.6818  0.3522
 1094TIP3    H218950   5.395   1.980   1.597  0.0776 -0.4013 -0.5771
 1095TIP3   OH218951   5.949   0.109   5.949  0.0766  0.4796  0.2596
 1095TIP3    H118952   5.989   0.146   5.871 -2.7942  0.9720 -1.1084
 1095TIP3    H218953   5.914   0.184   5.996  1.6875  0.1769  2.0450
 1096TIP3   OH218954   3.641   3.579   6.765  0.1293 -0.5187  0.3456
 1096TIP3    H118955   3.680   3.662   6.735  0.8337 -0.0153  2.4530
 1096TIP3    H218956   3.682   3.563   6.850  0.6945 -3.5495 -0.3939
 1097TIP3   OH218957   2.466   6.239   0.753  0.3320  0.3100 -0.3037
 1097TIP3    H118958   2.537   6.181   0.728 -1.8597 -1.9400 -1.7530
 1097TIP3    H218959   2.431   6.272   0.670 -1.5800 -0.3199  0.1871
 1098TIP3   OH218960   2.586   1.242   7.475 -0.3747 -0.1157  0.2477
 1098TIP3    H118961   2.586   1.177   7.545 -1.7054 -0.7918 -0.3521
 1098TIP3    H218962   2.668   1.226   7.428  0.8415  0.7423  1.9629
 1099TIP3   OH218963   1.652   2.142   6.262 -0.4375  0.2284  0.2183
 1099TIP3    H118964   1.575   2.085   6.260  0.3126 -0.8011 -0.1968
 1099TIP3    H218965   1.708   2.105   6.330  1.5815 -1.6672 -2.2675
 1100TIP3   OH218966   0.529   1.331   1.611  0.0888  0.3235  0.5654
 1100TIP3    H118967   0.540   1.398   1.679  0.3031  0.0947  0.7545
 1100TIP3    H218968   0.515   1.250   1.659 -0.2496  0.2425  0.3339
 1101TIP3   OH218969   5.829   3.398   6.766  0.3164 -0.0357 -0.4776
 1101TIP3    H118970   5.757   3.453   6.734 -0.1376 -1.2346 -1.6148
 1101TIP3    H218971   5.884   3.458   6.817 -0.7963  1.1928 -0.6574
 1102TIP3   OH218972   0.063   1.126   1.897  0.2041  0.7094 -0.3029
 1102TIP3    H118973   0.111   1.189   1.843  1.0726 -0.3221 -0.7661
 1102TIP3    H218974   0.119   1.112   1.973  1.5062 -1.6823 -1.5696
 1103TIP3   OH218975   3.812   0.515   6.917  0.3815  0.3048 -0.0386
 1103TIP3    H118976   3.856   0.490   6.835  1.0501  0.7161  0.1839
 1103TIP3    H218977   3.720   0.523   6.893  0.5864  0.5350 -0.7835
 1104TIP3   OH218978   1.192   4.456   2.811 -0.2089  0.3175  0.5428
 1104TIP3    H118979   1.280   4.463   2.773 -0.8765 -1.9733 -1.6823
 1104TIP3    H218980   1.186   4.365   2.840 -2.8050 -0.5196 -2.1656
 1105TIP3   OH218981   2.641   4.702   1.930  0.7270 -0.0120  0.0553
 1105TIP3    H118982   2.635   4.609   1.910 -1.7671  0.3179 -1.1284
 1105TIP3    H218983   2.639   4.745   1.844  1.2340  1.1483  0.5991
 1106TIP3   OH218984   4.101   4.090   2.007  0.1746  0.1146  0.1283
 1106TIP3    H118985   4.179   4.064   2.056 -0.9231 -0.1907  1.8254
 1106TIP3    H218986   4.029   4.079   2.070 -1.0688  1.6526 -0.9573
 1107TIP3   OH218987   2.200   3.308   6.599 -0.2199  0.1540 -0.2915
 1107TIP3    H118988   2.142   3.285   6.527 -1.3153  1.1381  0.2465
 1107TIP3    H218989   2.260   3.373   6.562 -0.2556  0.0562 -0.5210
 1108TIP3   OH218990   3.465   2.634   7.588  0.0139 -0.0652  0.2457
 1108TIP3    H118991   3.546   2.675   7.559 -0.8101  0.3090 -1.6893
 1108TIP3    H218992   3.440   2.576   7.516 -1.4923 -0.0780  0.7342
 1109TIP3   OH218993   2.833   0.303   0.069 -0.8141  0.5008 -0.0060
 1109TIP3    H118994   2.862   0.222   0.026 -1.0036  0.4953 -0.1268
 1109TIP3    H218995   2.862   0.294   0.160 -2.9449 -0.8023  0.6060
 1110TIP3   OH218996   1.696   1.173   0.701 -0.1654 -0.3024  0.8650
 1110TIP3    H118997   1.660   1.088   0.675 -0.9493  0.8827 -2.4930
 1110TIP3    H218998   1.764   1.191   0.635 -0.0721  1.6745  1.4365
 1111TIP3   OH218999   0.264   4.711   6.830  0.3674 -0.1914 -0.1233
 1111TIP3    H119000   0.179   4.691   6.792  1.9608 -2.2913 -3.0193
 1111TIP3    H219001   0.247   4.720   6.924 -3.0077 -0.3777 -0.5890
 1112TIP3   OH219002   0.858   1.150   2.126 -0.1555  0.4988 -0.1270
 1112TIP3    H119003   0.831   1.171   2.216  1.6765  1.4274  0.2509
 1112TIP3    H219004   0.777   1.153   2.075 -0.9626  1.8125  1.1681
 1113TIP3   OH219005   4.438   4.595   5.949  0.6084 -0.0538 -0.0823
 1113TIP3    H119006   4.347   4.620   5.931  0.2569 -0.7947  0.6366
 1113TIP3    H219007   4.489   4.668   5.913 -0.3240  1.0344  0.6918
 1114TIP3   OH219008   5.946   4.363   7.039  0.2274 -0.4179 -0.1807
 1114TIP3    H119009   5.912   4.393   6.955  1.7310 -1.1830 -1.1051
 1114TIP3    H219010   6.022   4.419   7.056  0.2120 -0.5766  0.4535
 1115TIP3   OH219011   4.566   3.779   7.071 -0.3701  0.4660  0.0869
 1115TIP3    H119012   4.520   3.703   7.108 -0.2610  1.9477  3.6947
 1115TIP3    H219013   4.658   3.756   7.076 -0.3889 -0.2841 -1.8456
 1116TIP3   OH219014   1.843   5.611   0.524  0.1310  0.2973  0.1767
 1116TIP3    H119015   1.793   5.680   0.480 -0.7151 -0.7808 -0.6306
 1116TIP3    H219016   1.903   5.578   0.456 -0.1131 -0.3631  0.2762
 1117TIP3   OH219017   3.920   1.995   7.303  0.7175  1.0682 -0.1131
 1117TIP3    H119018   3.924   2.032   7.215 -1.9290  2.6612  0.3365
 1117TIP3    H219019   3.858   2.050   7.350  1.5697 -0.0947  2.6125
 1118TIP3   OH219020   2.745   0.874   1.387 -0.2912  0.2748 -0.6641
 1118TIP3    H119021   2.760   0.932   1.462  1.4834 -0.4859 -0.3846
 1118TIP3    H219022   2.710   0.931   1.319 -1.8221  1.0102  0.6808
 1119TIP3   OH219023   3.765   4.137   5.407 -0.6471  0.0733  0.9367
 1119TIP3    H119024   3.843   4.081   5.412 -0.1303  0.4530 -1.4099
 1119TIP3    H219025   3.716   4.103   5.332 -0.9228  1.9981  0.1916
 1120TIP3   OH219026   3.499   3.894   6.407 -0.7106 -0.0777 -0.1372
 1120TIP3    H119027   3.422   3.940   6.439 -0.1752  0.5328  0.3080
 1120TIP3    H219028   3.569   3.959   6.409 -0.2258 -0.5595 -0.7330
 1121TIP3   OH219029   2.871   2.427   6.843  0.4376 -0.3697  0.4856
 1121TIP3    H119030   2.931   2.354   6.853 -0.6930 -1.1567  1.9231
 1121TIP3    H219031   2.857   2.434   6.748  0.3561 -2.1831  0.3360
 1122TIP3   OH219032   6.198   1.936   0.762 -0.4003  0.4014 -0.6168
 1122TIP3    H119033   6.192   1.867   0.696 -1.3575  1.9388 -2.2120
 1122TIP3    H219034   6.239   1.893   0.837 -1.3604 -2.0195 -1.3633
 1123TIP3   OH219035   5.151   3.416   6.245 -0.0013  0.2806 -0.1339
 1123TIP3    H119036   5.241   3.445   6.261  0.4319 -0.5043 -1.0434
 1123TIP3    H219037   5.152   3.322   6.266 -0.9937  0.5592  1.2808
 1124TIP3   OH219038   5.957   0.271   6.694 -0.2520  0.3813 -0.0364
 1124TIP3    H119039   5.996   0.195   6.652  2.1828  1.6728 -0.2964
 1124TIP3    H219040   5.928   0.327   6.621 -0.1222  0.6292  0.1005
 1125TIP3   OH219041   0.117   0.030   7.162  0.2690  0.1493 -1.1779
 1125TIP3    H119042   0.076   0.058   7.080 -1.2383 -0.8019 -0.7841
 1125TIP3    H219043   0.072   0.082   7.230 -0.0277 -0.6133 -0.7777
 1126TIP3   OH219044   4.621   4.296   2.197 -0.5914 -0.0969  0.1544
 1126TIP3    H119045   4.581   4.219   2.155  0.2046  0.6382 -2.0905
 1126TIP3    H219046   4.703   4.309   2.149  0.4023  0.8296  2.0098
 1127TIP3   OH219047   4.962   1.601   0.484 -0.3124 -0.0539 -0.1370
 1127TIP3    H119048   4.977   1.510   0.456 -0.6122 -0.2120  0.2139
 1127TIP3    H219049   4.881   1.597   0.535 -0.4332  0.4478 -0.2902
 1128TIP3   OH219050   1.414   6.075   1.040 -0.1569 -0.0702  0.4128
 1128TIP3    H119051   1.464   6.003   1.002  0.0238 -0.0972  0.6976
 1128TIP3    H219052   1.468   6.105   1.114  0.2820  1.0537 -0.3362
 1129TIP3   OH219053   3.121   0.932   1.668 -0.2411  0.0900 -0.1020
 1129TIP3    H119054   3.061   0.908   1.598 -0.0104  0.8368 -0.5714
 1129TIP3    H219055   3.173   1.004   1.631 -0.5632  0.9469  1.0494
 1130TIP3   OH219056   5.325   1.023   5.917 -0.0225 -0.6684 -0.2250
 1130TIP3    H119057   5.301   1.115   5.913  2.0530 -0.0567  0.4458
 1130TIP3    H219058   5.261   0.979   5.860 -2.4024  0.8329  1.1568
 1131TIP3   OH219059   4.044   5.104   7.312  0.0122  0.5887  0.2963
 1131TIP3    H119060   4.001   5.021   7.292 -1.2862  1.6641 -1.8171
 1131TIP3    H219061   4.038   5.112   7.407  1.7898 -2.5170  0.7877
 1132TIP3   OH219062   5.017   5.236   7.327  0.8382  1.1084 -0.2223
 1132TIP3    H119063   5.088   5.172   7.318  0.5315  0.3383  2.0559
 1132TIP3    H219064   4.949   5.205   7.267  1.8064  0.9944 -1.3063
 1133TIP3   OH219065   0.143   0.157   0.187 -0.7163  0.2434  0.3125
 1133TIP3    H119066   0.081   0.093   0.221  0.0814  0.1222  1.6130
 1133TIP3    H219067   0.150   0.136   0.093 -1.9323 -0.3017  0.3232
 1134TIP3   OH219068   1.113   5.395   1.130  0.2971 -0.4998 -0.7308
 1134TIP3    H119069   1.050   5.460   1.160  2.2080  0.8628  0.5864
 1134TIP3    H219070   1.061   5.317   1.112 -1.8175  0.7642 -0.4160
 1135TIP3   OH219071   0.929   4.305   1.779  0.5376  0.5834  0.2189
 1135TIP3    H119072   0.866   4.276   1.846  1.3985  2.4727  1.9167
 1135TIP3    H219073   0.982   4.227   1.763 -0.7460 -0.3935  0.4511
 1136TIP3   OH219074   2.626   0.947   1.091  0.3473 -0.3186 -0.4021
 1136TIP3    H119075   2.552   1.003   1.067  1.0272  0.1781 -1.4265
 1136TIP3    H219076   2.696   1.008   1.113  0.3659 -0.7892  0.8774
 1137TIP3   OH219077   1.090   1.660   1.657  0.8422 -0.0956 -0.0585
 1137TIP3    H119078   1.127   1.584   1.611 -2.5834 -2.1631  0.1765
 1137TIP3    H219079   1.108   1.643   1.750  1.2653  0.1130 -0.1016
 1138TIP3   OH219080   2.491   0.375   0.507 -0.5289  0.5850  0.3269
 1138TIP3    H119081   2.426   0.306   0.491  1.0146 -0.7382 -0.5515
 1138TIP3    H219082   2.525   0.356   0.595 -0.3171  0.4000  0.2060
 1139TIP3   OH219083   4.089   0.662   6.995  0.1974  0.0684  0.1893
 1139TIP3    H119084   4.073   0.569   6.980  2.2363 -0.1489 -0.9154
 1139TIP3    H219085   4.177   0.666   7.032  1.0052  1.6521 -1.7215
 1140TIP3   OH219086   5.740   5.952   6.558 -0.1850 -0.0023  0.3834
 1140TIP3    H119087   5.674   6.017   6.579  0.3623  0.3412  1.0864
 1140TIP3    H219088   5.774   5.979   6.473  0.0630  0.6582  0.6855
 1141TIP3   OH219089   1.674   4.075   7.421 -0.2851 -0.2223 -0.7339
 1141TIP3    H119090   1.595   4.127   7.429 -0.1254  0.2369 -1.9825
 1141TIP3    H219091   1.644   3.984   7.425 -0.5513 -0.0737  1.5550
 1142TIP3   OH219092   5.036   1.013   0.783  0.4605 -0.0503  0.4443
 1142TIP3    H119093   5.076   1.075   0.844  0.5717  0.7486 -0.4208
 1142TIP3    H219094   5.065   1.043   0.697 -1.4833  0.1824 -0.1706
 1143TIP3   OH219095   6.300   0.476   2.682 -0.4012  0.1370 -0.6690
 1143TIP3    H119096   6.232   0.420   2.720  0.9793 -0.4859  1.0039
 1143TIP3    H219097   6.261   0.564   2.681 -1.2018 -0.1885  0.3086
 1144TIP3   OH219098   2.837   4.408   6.976  0.1102 -0.4028 -0.5044
 1144TIP3    H119099   2.873   4.356   6.904 -1.1883 -2.3372  0.1660
 1144TIP3    H219100   2.905   4.406   7.043 -0.1924 -1.9504 -0.1949
 1145TIP3   OH219101   5.386   3.408   1.033  0.4175  0.2994 -0.4361
 1145TIP3    H119102   5.375   3.328   1.085  0.8864  0.0369 -0.7343
 1145TIP3    H219103   5.360   3.478   1.092  0.0709 -0.0681 -0.1436
 1146TIP3   OH219104   4.056   2.271   0.227  0.4960 -0.4625  1.1742
 1146TIP3    H119105   4.027   2.331   0.158  4.3161  0.0123 -0.2100
 1146TIP3    H219106   4.024   2.185   0.199  2.3968 -0.3699 -1.6086
 1147TIP3   OH219107   0.676   4.796   7.355 -0.2051 -0.4325  0.3913
 1147TIP3    H119108   0.640   4.727   7.299 -0.9170  0.5705 -0.4052
 1147TIP3    H219109   0.770   4.775   7.361 -0.2802 -1.0368 -0.4581
 1148TIP3   OH219110   0.512   2.531   0.565  0.4872 -0.3081  0.2823
 1148TIP3    H119111   0.455   2.517   0.640  1.3425  0.3339  1.0913
 1148TIP3    H219112   0.461   2.584   0.505 -0.3063 -1.0608  0.2806
 1149TIP3   OH219113   4.338   3.938   7.055 -0.1693  0.1351 -0.1705
 1149TIP3    H119114   4.357   3.980   7.139  1.5221  1.3812 -1.1101
 1149TIP3    H219115   4.419   3.891   7.032 -0.1397  0.8512 -1.6690
 1150TIP3   OH219116   3.125   4.676   7.339  0.1164  0.6375  0.4140
 1150TIP3    H119117   3.189   4.605   7.339  1.4761  1.7985 -1.0054
 1150TIP3    H219118   3.153   4.734   7.409 -1.0705 -0.2281  1.6613
 1151TIP3   OH219119   0.075   4.310   2.014  0.3247  0.3102  0.1502
 1151TIP3    H119120   0.158   4.262   2.011 -0.4239 -1.0978  1.1750
 1151TIP3    H219121   0.051   4.321   1.922 -0.5673 -3.3146 -0.2103
 1152TIP3   OH219122   4.688   3.065   0.211 -0.3500 -0.2580  0.2192
 1152TIP3    H119123   4.672   3.047   0.118  0.0909 -1.3247  0.3266
 1152TIP3    H219124   4.601   3.066   0.251 -0.6941  1.9473 -0.4624
 1153TIP3   OH219125   2.438   5.791   0.195 -0.3690  0.4110  0.3169
 1153TIP3    H119126   2.490   5.862   0.159 -2.2902  2.7514  1.8299
 1153TIP3    H219127   2.357   5.792   0.143 -1.0091  0.3500  1.2809
 1154TIP3   OH219128   1.031   4.703   7.059  0.3426  0.1307 -0.4147
 1154TIP3    H119129   1.006   4.795   7.059 -0.4928 -0.0862 -0.3874
 1154TIP3    H219130   1.031   4.679   6.966  0.7462  0.2056 -0.4343
 1155TIP3   OH219131   5.220   1.456   6.930 -0.4951  0.2253 -0.6800
 1155TIP3    H119132   5.125   1.451   6.915 -0.6402  0.1183  0.2042
 1155TIP3    H219133   5.259   1.429   6.847 -1.2521 -1.1517 -0.6218
 1156TIP3   OH219134   4.351   5.666   0.923 -0.2819 -0.0736  0.6751
 1156TIP3    H119135   4.404   5.742   0.944 -1.2251  0.3824  1.5102
 1156TIP3    H219136   4.270   5.678   0.973  0.9157 -3.4272  3.9295
 1157TIP3   OH219137   2.592   4.355   7.022 -0.5214  0.0617 -0.4667
 1157TIP3    H119138   2.684   4.371   7.003  0.3253 -1.3400  1.9865
 1157TIP3    H219139   2.584   4.366   7.117 -2.8656  0.0058 -0.5797
 1158TIP3   OH219140   4.386   3.979   6.513 -0.7203 -0.5823  0.1731
 1158TIP3    H119141   4.376   3.949   6.423  2.8534  1.5505 -1.1293
 1158TIP3    H219142   4.463   3.932   6.545 -1.0948 -0.2517  1.6122
 1159TIP3   OH219143   5.407   5.718   1.594  0.7957  0.6555 -0.5103
 1159TIP3    H119144   5.405   5.677   1.507 -0.6142  0.1839 -0.2880
 1159TIP3    H219145   5.369   5.805   1.580  1.4915  0.9588 -0.5369
 1160TIP3   OH219146   6.290   1.228   2.289 -0.0202  0.1540 -0.7258
 1160TIP3    H119147   6.354   1.181   2.235 -0.7017 -0.5176 -0.9691
 1160TIP3    H219148   6.334   1.240   2.373  0.2186 -0.8208 -0.6960
 1161TIP3   OH219149   3.832   4.328   7.127 -0.7516  0.2846 -0.9579
 1161TIP3    H119150   3.882   4.309   7.048 -0.9712 -0.0915 -1.0094
 1161TIP3    H219151   3.898   4.353   7.192 -0.6963  2.3323 -1.7429
 1162TIP3   OH219152   1.436   4.686   0.124  0.0095 -0.2467 -0.1533
 1162TIP3    H119153   1.344   4.695   0.147 -0.4295  0.0226 -1.8341
 1162TIP3    H219154   1.442   4.725   0.036  1.9792  0.9194  0.4325
 1163TIP3   OH219155   6.266   4.722   0.584  0.7829 -0.1699 -0.2619
 1163TIP3    H119156   6.192   4.776   0.555 -0.5229 -0.9993  1.3434
 1163TIP3    H219157   6.286   4.756   0.671  1.8847 -0.4006 -0.4186
 1164TIP3   OH219158   1.160   0.735   0.189  0.0412  0.3735  0.4070
 1164TIP3    H119159   1.129   0.805   0.132 -1.2774  0.6215  1.3830
 1164TIP3    H219160   1.246   0.765   0.219  0.2230  0.7847 -0.4894
 1165TIP3   OH219161   4.316   1.672   7.720  0.0228  0.5646 -0.1603
 1165TIP3    H119162   4.398   1.674   7.671 -0.6204 -0.2419 -1.3145
 1165TIP3    H219163   4.248   1.664   7.654 -0.9967  1.1597  0.7808
 1166TIP3   OH219164   5.857   0.037   6.827  0.1283  0.0631 -0.1679
 1166TIP3    H119165   5.894   0.019   6.741 -1.4852 -2.3041 -0.4738
 1166TIP3    H219166   5.920  -0.003   6.888 -0.0545 -0.6791 -0.4485
 1167TIP3   OH219167   3.010   2.598   7.636  0.1038  0.2067 -0.3840
 1167TIP3    H119168   3.044   2.587   7.547 -0.2057  0.1652 -0.4973
 1167TIP3    H219169   3.080   2.564   7.693 -0.5939 -1.8835 -0.6894
 1168TIP3   OH219170   3.342   5.394   0.847 -0.3365 -0.5710  0.2150
 1168TIP3    H119171   3.381   5.481   0.840  1.1875 -1.0258  2.0259
 1168TIP3    H219172   3.344   5.359   0.758 -0.5213  1.0386 -0.4517
 1169TIP3   OH219173   3.526   0.034   6.977 -0.1451  0.0482 -0.6315
 1169TIP3    H119174   3.465   0.075   6.916  0.5679  0.5793 -1.0090
 1169TIP3    H219175   3.478  -0.040   7.014 -1.7103  1.5747  0.5678
 1170TIP3   OH219176   4.468   3.816   0.587  0.1455  0.5078  0.5339
 1170TIP3    H119177   4.553   3.860   0.591 -0.0194  1.2398 -2.1836
 1170TIP3    H219178   4.489   3.728   0.556 -0.0651  0.6313  0.0387
 1171TIP3   OH219179   5.692   4.913   1.763 -0.0530 -0.2771  0.5246
 1171TIP3    H119180   5.705   4.989   1.819  0.1088 -0.7767  1.1812
 1171TIP3    H219181   5.663   4.949   1.680 -0.7270  0.4498  1.0637
 1172TIP3   OH219182   2.059   1.487   3.065  0.1700 -0.2830  0.2710
 1172TIP3    H119183   2.065   1.414   3.004 -0.5598 -1.8308  1.9406
 1172TIP3    H219184   1.982   1.536   3.037  0.3200 -0.4963 -0.5235
 1173TIP3   OH219185   1.653   2.678   7.198 -0.3070  0.1072 -0.5977
 1173TIP3    H119186   1.564   2.712   7.193 -0.1062  0.8702  0.6185
 1173TIP3    H219187   1.699   2.739   7.256  0.4640 -1.4033  0.4393
 1174TIP3   OH219188   3.975   3.185   1.374 -0.8760 -0.0395  0.1034
 1174TIP3    H119189   3.905   3.207   1.313 -0.9549 -1.0220 -0.1837
 1174TIP3    H219190   3.949   3.226   1.457 -0.6561  1.4947 -0.5503
 1175TIP3   OH219191   2.394   2.766   2.238 -0.2533  0.1152 -0.3348
 1175TIP3    H119192   2.300   2.750   2.234 -0.4237  1.1190 -0.7528
 1175TIP3    H219193   2.411   2.789   2.329 -0.4378  0.0493 -0.2839
 1176TIP3   OH219194   3.267   5.105   1.419  0.2998  0.1926  0.3212
 1176TIP3    H119195   3.195   5.043   1.421  1.3921 -1.1175  0.5233
 1176TIP3    H219196   3.305   5.094   1.332  1.3785 -0.5101  0.8520
 1177TIP3   OH219197   1.734   5.915   7.255 -0.3822  0.6329  0.0431
 1177TIP3    H119198   1.663   5.857   7.285  0.6358 -1.6202 -1.6436
 1177TIP3    H219199   1.693   5.970   7.188 -0.6047 -0.6418 -0.9067
 1178TIP3   OH219200   6.074   5.226   1.836  0.2375  0.0339  0.1514
 1178TIP3    H119201   6.041   5.315   1.851 -1.0197 -0.3245 -0.3545
 1178TIP3    H219202   6.093   5.192   1.923 -2.3106 -0.3085  0.6291
 1179TIP3   OH219203   3.125   4.904   7.078 -0.2991  0.4064  0.0482
 1179TIP3    H119204   3.032   4.885   7.084 -0.3986  0.7330 -0.4067
 1179TIP3    H219205   3.139   4.930   6.987 -0.0578  1.8162  0.4565
 1180TIP3   OH219206   5.775   1.651   6.420 -0.4906  0.2558  0.0354
 1180TIP3    H119207   5.770   1.568   6.374 -0.3468 -0.3083  1.0124
 1180TIP3    H219208   5.684   1.676   6.435 -0.6074  1.3332 -2.0484
 1181TIP3   OH219209   1.166   1.323   0.034  1.1295 -0.4160  0.2098
 1181TIP3    H119210   1.118   1.243   0.056 -0.4547  0.1566 -1.0245
 1181TIP3    H219211   1.201   1.307  -0.053  0.4810  0.3665 -0.2040
 1182TIP3   OH219212   1.868   4.542   6.787  0.0350  0.4144  0.0161
 1182TIP3    H119213   1.951   4.566   6.828 -0.2169  1.8185 -0.2470
 1182TIP3    H219214   1.801   4.567   6.851 -0.2978  1.6053 -0.7513
 1183TIP3   OH219215   5.838   6.022   6.284 -0.1512 -0.0018 -0.1872
 1183TIP3    H119216   5.865   6.003   6.194  2.0221 -2.3372  0.8063
 1183TIP3    H219217   5.859   6.114   6.296  0.7694  0.0309 -1.7192
 1184TIP3   OH219218   2.771   6.032   1.053 -0.7577 -0.2706  0.3519
 1184TIP3    H119219   2.772   6.123   1.080  0.9692 -0.2405  0.3033
 1184TIP3    H219220   2.800   5.984   1.131 -0.8414 -0.6970  0.1230
 1185TIP3   OH219221   3.555   1.976   7.077 -0.1536 -0.3482 -0.4773
 1185TIP3    H119222   3.606   1.943   7.150 -0.6903  0.3365  0.2237
 1185TIP3    H219223   3.613   1.966   7.001  1.8380  2.2112  0.5619
 1186TIP3   OH219224   5.415   3.234   1.404 -0.0728  0.1734 -0.1760
 1186TIP3    H119225   5.347   3.300   1.390 -0.1365  0.1256 -0.0939
 1186TIP3    H219226   5.484   3.258   1.342  0.6876  1.3728  1.0943
 1187TIP3   OH219227   3.855   2.136   6.495 -0.4537  0.3712 -1.0263
 1187TIP3    H119228   3.893   2.075   6.558  1.2159  0.7038 -1.6407
 1187TIP3    H219229   3.765   2.148   6.523 -0.5708 -1.6869 -0.3881
 1188TIP3   OH219230   3.351   2.885   7.606  0.4838 -0.0339 -0.1449
 1188TIP3    H119231   3.385   2.797   7.591  0.2386 -0.0850 -0.4196
 1188TIP3    H219232   3.393   2.914   7.687 -0.0237 -0.7038  0.3706
 1189TIP3   OH219233   5.534   0.779   7.750  0.1162 -0.0883 -0.7662
 1189TIP3    H119234   5.477   0.749   7.679 -1.3654  1.0364 -0.1042
 1189TIP3    H219235   5.599   0.834   7.706  0.2346 -0.7434 -1.4376
 1190TIP3   OH219236   5.002   2.125   6.820 -0.4256  0.1087 -0.2496
 1190TIP3    H119237   5.004   2.049   6.879 -2.0484 -0.0976 -0.4150
 1190TIP3    H219238   5.065   2.104   6.752 -1.1128 -1.2958 -0.4969
 1191TIP3   OH219239   6.042   3.652   1.582 -0.3233  0.0936 -0.0523
 1191TIP3    H119240   6.050   3.745   1.606  0.6544 -0.0105  0.0577
 1191TIP3    H219241   6.129   3.628   1.552 -0.1983 -1.1774  1.2644
 1192TIP3   OH219242   3.912   4.736   6.844 -0.6485 -0.0381 -0.0011
 1192TIP3    H119243   3.994   4.754   6.890 -0.6033 -1.9281  0.7699
 1192TIP3    H219244   3.938   4.721   6.753 -0.2735  0.3393  0.0429
 1193TIP3   OH219245   3.265   0.904   0.150  0.1452 -0.3463 -0.2172
 1193TIP3    H119246   3.296   0.978   0.202  1.3693  0.2543 -1.7119
 1193TIP3    H219247   3.210   0.853   0.210  0.6080  0.8837  1.3100
 1194TIP3   OH219248   3.636   0.580   0.186  0.4968 -0.7589 -0.6603
 1194TIP3    H119249   3.656   0.526   0.262 -1.9217  2.5141  2.6880
 1194TIP3    H219250   3.703   0.648   0.186  0.6560 -0.8983 -1.7152
 1195TIP3   OH219251   0.339   2.420   1.175 -0.0415  0.3842 -0.2609
 1195TIP3    H119252   0.404   2.362   1.136 -0.7952 -0.8199  0.2256
 1195TIP3    H219253   0.369   2.508   1.153  2.1892 -0.0934  0.6205
 1196TIP3   OH219254   1.641   1.227   6.970  0.2500 -0.3223 -0.3381
 1196TIP3    H119255   1.575   1.224   7.040 -1.0504  0.8790 -1.4392
 1196TIP3    H219256   1.716   1.272   7.009 -0.9560  1.5580 -0.0369
 1197TIP3   OH219257   5.280   2.216   0.969 -0.5362 -0.3020  1.0595
 1197TIP3    H119258   5.292   2.157   0.895  1.0694  1.8041 -0.4699
 1197TIP3    H219259   5.187   2.238   0.967 -1.0612 -2.2302  1.3320
 1198TIP3   OH219260   0.776   4.334   0.446 -0.5193  0.5275 -0.1190
 1198TIP3    H119261   0.755   4.357   0.355 -2.6787 -0.2838  0.1210
 1198TIP3    H219262   0.699   4.361   0.496 -0.5048 -1.4694  1.0655
 1199TIP3   OH219263   0.358   1.143   7.750  0.0097 -0.2939 -0.0705
 1199TIP3    H119264   0.392   1.055   7.733 -2.0415 -1.0770 -0.4254
 1199TIP3    H219265   0.264   1.134   7.740 -0.1510  2.3783 -1.9746
 1200TIP3   OH219266   0.174   3.450   6.119  0.1694  0.3862  0.0440
 1200TIP3    H119267   0.196   3.358   6.105 -1.2931  0.2207 -1.5042
 1200TIP3    H219268   0.082   3.457   6.091  0.5632  2.5129 -0.9028
 1201TIP3   OH219269   5.995   0.316   6.355  0.2135  0.0731 -0.0079
 1201TIP3    H119270   6.049   0.237   6.345 -0.1188  0.0435 -2.0922
 1201TIP3    H219271   5.945   0.321   6.273  0.1950  2.4338  0.0781
 1202TIP3   OH219272   4.144   3.065   6.730 -0.1644  0.1727  0.7763
 1202TIP3    H119273   4.203   3.068   6.806 -0.0205  2.4556  0.6544
 1202TIP3    H219274   4.193   3.016   6.664  1.5776  1.7985  0.7645
 1203TIP3   OH219275   5.299   4.869   0.865  0.1424  0.3629 -0.0300
 1203TIP3    H119276   5.313   4.859   0.959  0.3939 -0.2141 -0.1272
 1203TIP3    H219277   5.335   4.956   0.845  0.4250  0.3349  0.3375
 1204TIP3   OH219278   0.525   2.071   0.192  0.0677  0.3378  0.4715
 1204TIP3    H119279   0.518   1.984   0.153  1.5694 -0.1546  1.1879
 1204TIP3    H219280   0.442   2.114   0.172 -1.8378 -2.1801  2.2969
 1205TIP3   OH219281   4.473   5.130   1.444 -0.3070  1.3508 -0.3791
 1205TIP3    H119282   4.516   5.161   1.523  1.5156 -0.0749 -0.7488
 1205TIP3    H219283   4.423   5.053   1.472  1.0688  0.3017 -0.7446
 1206TIP3   OH219284   4.419   4.496   2.250 -0.6534 -0.0583 -0.3585
 1206TIP3    H119285   4.379   4.437   2.187 -0.8628  1.1437 -1.3943
 1206TIP3    H219286   4.511   4.470   2.254 -1.4390 -2.9756  2.1864
 1207TIP3   OH219287   3.374   1.283   2.201  0.7489 -0.0340  0.3336
 1207TIP3    H119288   3.443   1.275   2.268  1.2441  0.6899 -0.0776
 1207TIP3    H219289   3.309   1.341   2.241 -0.5293 -2.1203  1.4338
 1208TIP3   OH219290   2.326   2.568   0.960 -0.3568 -0.1212 -0.4475
 1208TIP3    H119291   2.248   2.558   0.905 -3.1896 -2.5374  3.4505
 1208TIP3    H219292   2.368   2.482   0.960  2.9008  1.2691 -2.8996
 1209TIP3   OH219293   0.862   4.940   0.889  0.5045  0.3262 -0.2483
 1209TIP3    H119294   0.834   4.849   0.904 -0.5087  0.7831  0.8471
 1209TIP3    H219295   0.954   4.941   0.914  0.2643 -0.1927  0.7065
 1210TIP3   OH219296   0.963   5.757   7.376 -0.5748 -0.0572  0.6045
 1210TIP3    H119297   0.992   5.711   7.455  0.4649  0.1874  0.3771
 1210TIP3    H219298   1.000   5.707   7.304 -1.2709 -0.1065  0.2721
 1211TIP3   OH219299   0.410   0.349   2.107  0.2255 -0.7187  0.1303
 1211TIP3    H119300   0.339   0.396   2.150  1.3484  1.0139  0.1627
 1211TIP3    H219301   0.371   0.315   2.026 -0.3439  1.3052 -0.4970
 1212TIP3   OH219302   2.312   1.461   7.555 -0.0159  0.5211  0.6696
 1212TIP3    H119303   2.354   1.518   7.491 -0.6444 -0.1419 -0.3648
 1212TIP3    H219304   2.224   1.448   7.520  0.0755 -0.9611  0.9495
 1213TIP3   OH219305   5.419   5.148   1.553 -0.3781 -0.1264 -0.5115
 1213TIP3    H119306   5.430   5.197   1.635  0.5916 -0.4029 -0.4665
 1213TIP3    H219307   5.363   5.075   1.576  0.4789 -0.6195  0.1010
 1214TIP3   OH219308   1.482   5.835   0.077  0.2808  0.2397  0.2732
 1214TIP3    H119309   1.451   5.773   0.143 -1.0515 -0.4787 -0.9617
 1214TIP3    H219310   1.460   5.921   0.113  0.6042 -0.0789  1.2535
 1215TIP3   OH219311   5.198   2.959   6.893 -0.7341  0.4581  0.2030
 1215TIP3    H119312   5.130   2.983   6.830 -1.8125 -0.1572  1.0951
 1215TIP3    H219313   5.245   3.040   6.910 -0.9405  0.7949 -0.7786
 1216TIP3   OH219314   3.048   3.465   0.627  0.3505  0.2361  0.0886
 1216TIP3    H119315   2.973   3.483   0.571 -0.4269 -1.4075  0.5408
 1216TIP3    H219316   3.089   3.387   0.589  0.0771 -0.6333  1.4905
 1217TIP3   OH219317   1.645   2.026   7.410  0.0886 -0.3534 -0.0536
 1217TIP3    H119318   1.705   2.071   7.350 -1.0597 -0.2183 -1.1394
 1217TIP3    H219319   1.567   2.009   7.357 -1.0202 -0.1140  1.4552
 1218TIP3   OH219320   1.240   6.123   6.736 -0.1419 -0.0640  0.3370
 1218TIP3    H119321   1.202   6.061   6.674 -2.0461  1.7342 -0.4228
 1218TIP3    H219322   1.229   6.208   6.695  2.4275  0.8521  1.3182
 1219TIP3   OH219323   1.362   5.278   7.731  0.3631 -0.0337  0.3178
 1219TIP3    H119324   1.354   5.264   7.825  1.8146 -0.3688  0.4185
 1219TIP3    H219325   1.441   5.229   7.706  0.1186  0.2133 -1.0367
 1220TIP3   OH219326   0.990   2.594   7.742  0.5674  0.1277 -0.1189
 1220TIP3    H119327   0.976   2.656   7.813 -0.4179  0.6691 -0.7719
 1220TIP3    H219328   1.018   2.514   7.786 -0.6323  0.2571  0.9366
 1221TIP3   OH219329   1.347   4.832   0.437 -0.1151 -0.4773 -0.3988
 1221TIP3    H119330   1.324   4.922   0.413  0.2662 -0.5306 -0.9634
 1221TIP3    H219331   1.432   4.817   0.397  0.7407 -0.4380  1.2931
 1222TIP3   OH219332   0.119   5.321   6.524  0.2395 -0.0553 -0.1188
 1222TIP3    H119333   0.173   5.357   6.454  0.9555  0.2570  0.5831
 1222TIP3    H219334   0.087   5.398   6.571 -0.7983 -0.2357 -0.5020
 1223TIP3   OH219335   1.811   0.276   0.869 -0.2619 -0.2098  0.0202
 1223TIP3    H119336   1.805   0.256   0.775  1.5922 -2.8618  0.3553
 1223TIP3    H219337   1.757   0.209   0.911  0.2397 -0.0599  0.9251
 1224TIP3   OH219338   1.579   5.512   0.187 -0.2141 -0.5705 -0.0185
 1224TIP3    H119339   1.650   5.475   0.135 -0.6481  0.6940 -1.5710
 1224TIP3    H219340   1.605   5.603   0.203 -0.1476 -0.8836  1.9192
 1225TIP3   OH219341   0.426   1.955   7.316 -0.2563 -0.0082  0.1128
 1225TIP3    H119342   0.521   1.954   7.331 -0.4947  0.4146  1.8956
 1225TIP3    H219343   0.415   2.009   7.238  0.8568  1.6789  1.0521
 1226TIP3   OH219344   6.104   4.469   6.229  0.3223 -1.1516  0.6633
 1226TIP3    H119345   6.088   4.539   6.167 -1.5304 -0.0656  2.2810
 1226TIP3    H219346   6.153   4.403   6.178  0.9873  0.6911 -1.2334
 1227TIP3   OH219347   5.718   6.191   2.588  0.2208 -0.3869 -0.0795
 1227TIP3    H119348   5.771   6.268   2.567 -0.9558  0.7258  0.8414
 1227TIP3    H219349   5.769   6.117   2.556  0.3994  0.8725 -3.0359
 1228TIP3   OH219350   3.531   4.229   6.378 -0.2740  0.1203 -0.2718
 1228TIP3    H119351   3.583   4.167   6.428 -1.7453 -1.2193 -0.3282
 1228TIP3    H219352   3.587   4.306   6.369  2.6538 -2.0458 -2.3455
 1229TIP3   OH219353   1.724   1.058   0.056 -0.2388  0.2559  0.1000
 1229TIP3    H119354   1.688   0.978   0.017  1.6884 -0.3750 -0.5224
 1229TIP3    H219355   1.711   1.047   0.150 -0.1277 -0.7387  0.0100
 1230TIP3   OH219356   1.813   5.237   1.770  0.3067 -0.4623  0.4209
 1230TIP3    H119357   1.874   5.268   1.837 -1.1219  3.7450  0.0622
 1230TIP3    H219358   1.861   5.247   1.688  0.6234 -1.5307  0.4669
 1231TIP3   OH219359   3.929   2.688   7.743  0.0515 -0.0379  0.6901
 1231TIP3    H119360   3.990   2.646   7.804  0.7884 -0.9819 -0.6552
 1231TIP3    H219361   3.878   2.616   7.707 -0.8142  0.5863  0.6335
 1232TIP3   OH219362   3.226   5.809   1.822 -0.2136 -0.4723 -0.0695
 1232TIP3    H119363   3.219   5.745   1.751  2.1693 -0.0053 -0.8325
 1232TIP3    H219364   3.230   5.893   1.777 -0.0906 -0.0657  0.6955
 1233TIP3   OH219365   0.518   5.270   1.144  0.2995 -0.3333 -0.3949
 1233TIP3    H119366   0.557   5.279   1.232  0.4414 -1.0620 -0.3774
 1233TIP3    H219367   0.591   5.284   1.084  0.3351 -0.4733 -0.3844
 1234TIP3   OH219368   2.856   5.486   7.479  0.5528  0.3703 -0.0394
 1234TIP3    H119369   2.824   5.576   7.474 -0.2855  0.1738  1.1639
 1234TIP3    H219370   2.796   5.443   7.540  0.2752 -1.3097 -1.4341
 1235TIP3   OH219371   1.073   0.728   6.078  0.4418  0.2634  0.3100
 1235TIP3    H119372   1.095   0.718   5.986 -1.1616  0.6266 -0.1348
 1235TIP3    H219373   1.158   0.724   6.123  1.4555  1.7494 -1.3102
 1236TIP3   OH219374   5.116   2.767   6.557  0.6501 -0.1318 -0.1338
 1236TIP3    H119375   5.080   2.746   6.471 -0.6436 -1.8886  0.7605
 1236TIP3    H219376   5.209   2.785   6.540 -0.0820  2.3691 -2.2211
 1237TIP3   OH219377   5.375   6.166   0.302  0.5561  0.3393  0.2095
 1237TIP3    H119378   5.378   6.197   0.392 -0.2573 -0.7421  0.6329
 1237TIP3    H219379   5.400   6.242   0.249 -1.2458  1.7078  1.1985
 1238TIP3   OH219380   4.832   0.846   5.657 -0.5948 -0.0867  0.3258
 1238TIP3    H119381   4.774   0.920   5.675 -1.3008 -0.7003  0.5817
 1238TIP3    H219382   4.843   0.848   5.562  1.4990  1.9123  0.5169
 1239TIP3   OH219383   1.016   0.508   7.508 -0.3599 -0.2951  0.2489
 1239TIP3    H119384   1.092   0.543   7.555 -0.0002 -0.9472  0.1629
 1239TIP3    H219385   1.047   0.498   7.418 -0.3167 -1.2319  0.3573
 1240TIP3   OH219386   2.723   6.124   2.621 -0.6793  0.2863  0.2287
 1240TIP3    H119387   2.805   6.170   2.605 -1.4068  1.0541 -1.5147
 1240TIP3    H219388   2.718   6.059   2.552 -0.6345 -1.1073  1.4837
 1241TIP3   OH219389   0.367   1.947   6.844  0.1053  0.2647 -0.0341
 1241TIP3    H119390   0.320   1.927   6.763 -1.0581  0.9209  0.4531
 1241TIP3    H219391   0.304   1.926   6.913  1.4902 -1.4455  0.7758
 1242TIP3   OH219392   2.113   2.934   0.443  0.6464  0.4259 -0.8938
 1242TIP3    H119393   2.050   2.901   0.379  0.4096  1.5055 -1.2459
 1242TIP3    H219394   2.178   2.864   0.452 -1.1677 -1.1976  0.3046
 1243TIP3   OH219395   3.897   4.263   6.671 -0.4775 -0.2320 -0.5837
 1243TIP3    H119396   3.804   4.278   6.689 -0.4696 -0.6500 -0.1875
 1243TIP3    H219397   3.932   4.228   6.752 -0.5924 -2.7659 -1.5245
 1244TIP3   OH219398   3.376   2.105   1.946  0.5616 -0.1932 -0.2799
 1244TIP3    H119399   3.401   2.144   2.030  0.5331 -0.8238  0.0256
 1244TIP3    H219400   3.350   2.016   1.968  1.4656 -0.6779 -1.0801
 1245TIP3   OH219401   3.103   4.612   0.606 -0.2126  0.1702 -0.1727
 1245TIP3    H119402   3.132   4.612   0.515 -0.3987 -1.6785 -0.2882
 1245TIP3    H219403   3.013   4.643   0.603 -0.0043  0.7509 -0.5219
 1246TIP3   OH219404   3.640   2.854   0.395  0.5150 -0.2222 -0.5136
 1246TIP3    H119405   3.700   2.785   0.370 -0.3607 -0.6370 -1.5440
 1246TIP3    H219406   3.595   2.821   0.474  3.6864  1.3227  2.1967
 1247TIP3   OH219407   4.814   5.120   0.261 -0.4826  0.3485  0.2611
 1247TIP3    H119408   4.751   5.057   0.227  1.2739 -0.4936 -1.6796
 1247TIP3    H219409   4.792   5.129   0.353 -3.1393 -0.1973 -0.2256
 1248TIP3   OH219410   4.061   4.859   6.514 -0.1901  0.1784 -0.0971
 1248TIP3    H119411   3.985   4.876   6.459 -0.7667  0.0853  0.6520
 1248TIP3    H219412   4.128   4.827   6.454 -1.1136 -0.8273 -0.6221
 1249TIP3   OH219413   5.112   0.889   1.083 -0.6153  0.4541 -0.4479
 1249TIP3    H119414   5.177   0.855   1.021 -1.4802 -0.8238 -0.6951
 1249TIP3    H219415   5.067   0.811   1.116 -1.1638  1.2208  0.6901
 1250TIP3   OH219416   1.665   2.869   1.423  0.1174 -0.8076 -0.0302
 1250TIP3    H119417   1.737   2.853   1.363 -0.8502 -2.4665 -0.8266
 1250TIP3    H219418   1.618   2.944   1.385  1.0652 -0.0888  0.1875
 1251TIP3   OH219419   4.048   3.310   2.354  0.6312 -0.1331 -0.2383
 1251TIP3    H119420   4.022   3.220   2.336 -0.7746  0.3717 -0.9156
 1251TIP3    H219421   4.138   3.316   2.322  0.1068 -0.8070 -1.9816
 1252TIP3   OH219422   1.554   3.473   5.731  0.5118  0.2807 -0.3710
 1252TIP3    H119423   1.570   3.566   5.748  0.8413  0.2135 -0.3102
 1252TIP3    H219424   1.459   3.465   5.729  0.4838  0.6417 -0.4948
 1253TIP3   OH219425   4.800   1.832   0.317 -0.0452  0.3891 -0.2667
 1253TIP3    H119426   4.874   1.874   0.273 -1.3196  2.2495 -0.7382
 1253TIP3    H219427   4.785   1.885   0.395 -0.1908 -0.6529  0.4342
 1254TIP3   OH219428   2.571   2.120   1.206 -0.3791  0.5376  0.0810
 1254TIP3    H119429   2.609   2.043   1.164  0.1283  0.5945  0.4208
 1254TIP3    H219430   2.646   2.179   1.220  0.0215 -0.5323  3.4382
 1255TIP3   OH219431   2.943   1.086   0.774 -0.6035 -0.0339  0.2198
 1255TIP3    H119432   2.988   1.003   0.762 -1.5112 -0.5994  0.6600
 1255TIP3    H219433   3.011   1.147   0.802  0.6093  0.0653 -2.6244
 1256TIP3   OH219434   5.680   2.867   1.614 -0.4190 -0.4058 -0.1795
 1256TIP3    H119435   5.716   2.886   1.527 -1.4970 -1.3743 -0.8771
 1256TIP3    H219436   5.603   2.923   1.620 -0.2154 -0.1752  0.2436
 1257TIP3   OH219437   1.587   5.921   1.433 -0.3154 -0.1898  0.1938
 1257TIP3    H119438   1.578   5.924   1.338 -1.8021  2.1438  0.3298
 1257TIP3    H219439   1.497   5.914   1.466  0.1232 -0.1865  1.4594
 1258TIP3   OH219440   3.858   0.471   6.598  0.0933 -0.1544 -0.1752
 1258TIP3    H119441   3.817   0.535   6.540 -1.8298 -0.5136  0.6964
 1258TIP3    H219442   3.933   0.516   6.634 -1.3178  1.7298  0.5640
 1259TIP3   OH219443   4.026   5.943   7.390  0.2497 -0.6498  0.1886
 1259TIP3    H119444   3.945   5.984   7.360  0.0134 -0.5976  0.8730
 1259TIP3    H219445   4.033   5.967   7.482  0.7800 -1.0793  0.2713
 1260TIP3   OH219446   0.511   6.065   1.584  0.3252 -0.1661  0.1901
 1260TIP3    H119447   0.461   6.133   1.539  0.1384 -0.5259 -0.1493
 1260TIP3    H219448   0.520   6.097   1.674 -0.7606 -0.2246  0.3278
 1261TIP3   OH219449   1.298   3.810   7.286 -0.8403  0.1893 -0.5759
 1261TIP3    H119450   1.284   3.719   7.262 -3.2405  1.1001 -3.1430
 1261TIP3    H219451   1.386   3.812   7.324 -0.2529 -2.9603 -1.5224
 1262TIP3   OH219452   4.079   4.762   0.204 -0.0811 -0.3096  0.6016
 1262TIP3    H119453   4.031   4.831   0.248  1.3753  0.3771  1.1795
 1262TIP3    H219454   4.130   4.807   0.136  0.8361 -0.7952  0.9460
 1263TIP3   OH219455   0.033   4.093   1.650  0.6722  0.2412  0.0719
 1263TIP3    H119456   0.038   4.097   1.554 -0.2835 -0.5524 -0.0346
 1263TIP3    H219457   0.030   4.184   1.678  0.7634  0.4794 -0.6711
 1264TIP3   OH219458   1.466   6.213   1.560 -0.0967 -0.0673  0.1741
 1264TIP3    H119459   1.453   6.122   1.589 -0.7214 -0.0174  0.0614
 1264TIP3    H219460   1.431   6.215   1.471  0.2476  0.1970  0.0448
 1265TIP3   OH219461   0.734   1.898   1.464 -0.0479 -0.2663  0.0871
 1265TIP3    H119462   0.642   1.874   1.448  0.1913 -0.4859 -1.0246
 1265TIP3    H219463   0.735   1.993   1.458 -0.2861 -0.2273  0.5942
 1266TIP3   OH219464   2.030   1.686   1.572 -0.0957  0.6480  0.0331
 1266TIP3    H119465   1.996   1.597   1.567  0.5674  0.3939 -0.0988
 1266TIP3    H219466   1.977   1.736   1.509 -1.0601  0.5534  0.7489
 1267TIP3   OH219467   3.087   2.422   1.786 -0.2250 -0.4550 -0.1845
 1267TIP3    H119468   2.995   2.411   1.759 -0.4502 -0.4365  0.5656
 1267TIP3    H219469   3.109   2.511   1.759 -0.1622 -0.7443 -1.1223
 1268TIP3   OH219470   5.134   2.406   6.748  0.6583  0.0845 -0.5700
 1268TIP3    H119471   5.161   2.498   6.750  3.6964 -0.7064 -0.2567
 1268TIP3    H219472   5.154   2.373   6.835  1.0964 -1.2199 -1.1364
 1269TIP3   OH219473   2.465   2.850   6.565  0.1082  0.1471 -0.4309
 1269TIP3    H119474   2.411   2.914   6.520  1.0946  0.7398 -0.8031
 1269TIP3    H219475   2.433   2.765   6.534 -0.7913  0.4668 -0.4112
 1270TIP3   OH219476   1.686   4.595   1.591  0.2226 -0.4664 -0.2734
 1270TIP3    H119477   1.650   4.546   1.517 -2.1767 -0.4378  0.7782
 1270TIP3    H219478   1.635   4.676   1.592  0.5366 -0.2646  1.1484
 1271TIP3   OH219479   5.223   0.931   6.762  0.0473  0.1354 -0.8316
 1271TIP3    H119480   5.167   0.854   6.752 -2.0561  1.1844  1.5854
 1271TIP3    H219481   5.162   1.005   6.761  1.5248  1.4588  0.6032
 1272TIP3   OH219482   0.885   3.873   0.624 -0.1602  0.1437  0.6000
 1272TIP3    H119483   0.890   3.870   0.528 -0.4957  0.6530  0.5607
 1272TIP3    H219484   0.854   3.786   0.649  0.3414 -0.1362  0.2784
 1273TIP3   OH219485   3.549   5.360   0.251 -0.4026 -0.3226 -0.4407
 1273TIP3    H119486   3.471   5.325   0.293 -1.1869 -0.9713 -2.3252
 1273TIP3    H219487   3.571   5.295   0.184  0.5178  0.8546 -1.3164
 1274TIP3   OH219488   2.352   3.502   0.381 -0.3034 -0.6406  0.0764
 1274TIP3    H119489   2.269   3.518   0.336 -1.5256 -1.6966  1.8141
 1274TIP3    H219490   2.328   3.449   0.457  1.8758 -0.3326  1.0585
 1275TIP3   OH219491   4.055   4.264   6.942  0.0217 -0.4055 -0.0759
 1275TIP3    H119492   4.060   4.176   6.977 -2.1622 -0.6164 -0.1612
 1275TIP3    H219493   4.146   4.288   6.924  0.8962 -1.6654  2.2646
 1276TIP3   OH219494   0.552   1.909   2.056 -0.1849  0.4785 -0.0245
 1276TIP3    H119495   0.609   1.967   2.006 -1.2545  0.8858 -0.8000
 1276TIP3    H219496   0.584   1.821   2.036 -0.0271  0.6875 -0.7042
 1277TIP3   OH219497   4.990   2.122   7.695 -0.6288  0.5897 -0.0009
 1277TIP3    H119498   5.047   2.068   7.641 -1.3377  1.3022 -1.5287
 1277TIP3    H219499   5.039   2.135   7.776  1.0920  0.6102 -0.9909
 1278TIP3   OH219500   2.436   5.554   0.311  1.0169 -0.3147 -0.1579
 1278TIP3    H119501   2.435   5.481   0.250 -3.2772 -0.4871 -0.1697
 1278TIP3    H219502   2.451   5.631   0.256  0.6709 -0.7672 -0.8991
 1279TIP3   OH219503   0.362   4.894   0.516 -0.0330  0.4110 -1.0539
 1279TIP3    H119504   0.382   4.830   0.448 -0.0637 -1.1132  0.3067
 1279TIP3    H219505   0.399   4.856   0.596 -1.1671  1.4882  0.0273
 1280TIP3   OH219506   2.546   2.331   0.558 -0.2046  0.2158 -0.4765
 1280TIP3    H119507   2.543   2.295   0.646  2.5920  0.3559 -0.2098
 1280TIP3    H219508   2.484   2.279   0.507 -3.1536  1.1889  1.8362
 1281TIP3   OH219509   3.641   4.901   6.749  0.4422 -0.6099 -0.6736
 1281TIP3    H119510   3.719   4.851   6.773  1.3288  1.1061  0.1254
 1281TIP3    H219511   3.638   4.897   6.654  2.2073  0.2924 -0.8055
 1282TIP3   OH219512   5.572   3.801   7.348 -0.2341 -0.1641  0.1591
 1282TIP3    H119513   5.567   3.781   7.442 -0.7496 -0.0709  0.1525
 1282TIP3    H219514   5.595   3.718   7.307  0.9170 -0.0127  0.4509
 1283TIP3   OH219515   3.462   0.956   7.083  0.2712  0.0316  0.7590
 1283TIP3    H119516   3.378   0.931   7.045 -0.0368  1.9154  0.1118
 1283TIP3    H219517   3.490   0.879   7.132 -1.3557 -0.9705  0.1861
 1284TIP3   OH219518   3.684   2.085   3.090 -0.0948 -0.6198  0.0840
 1284TIP3    H119519   3.592   2.108   3.105  0.2432  1.0625 -0.2444
 1284TIP3    H219520   3.716   2.152   3.029  1.0507 -1.8490 -0.7078
 1285TIP3   OH219521   5.404   5.192   6.752  0.4100 -0.0294  0.1863
 1285TIP3    H119522   5.430   5.205   6.661 -2.8439 -0.6453 -0.9630
 1285TIP3    H219523   5.419   5.277   6.793  0.9357  0.5759 -1.1866
 1286TIP3   OH219524   5.741   4.121   0.838  0.3462 -0.4456 -0.5521
 1286TIP3    H119525   5.678   4.050   0.854 -0.7363  0.8650  1.4566
 1286TIP3    H219526   5.814   4.101   0.896 -0.1244  0.2190  0.3011
 1287TIP3   OH219527   2.849   6.222   6.641 -0.6189 -0.2818  0.0136
 1287TIP3    H119528   2.876   6.293   6.698  0.5098 -1.3199  0.8366
 1287TIP3    H219529   2.785   6.173   6.692 -0.2126 -0.7475  0.0849
 1288TIP3   OH219530   0.597   3.768   7.744  0.5063  0.6311  0.5302
 1288TIP3    H119531   0.598   3.778   7.839 -0.4201  0.3143  0.5900
 1288TIP3    H219532   0.537   3.694   7.728 -1.3981  2.2578 -0.3959
 1289TIP3   OH219533   6.160   4.800   1.645 -0.3434  0.3761  0.2877
 1289TIP3    H119534   6.081   4.852   1.660  0.0199  0.5020  1.9523
 1289TIP3    H219535   6.127   4.712   1.625 -0.9041  0.4039  1.0478
 1290TIP3   OH219536   4.986   4.905   0.887  0.2386  0.1936  0.4332
 1290TIP3    H119537   4.933   4.832   0.856  0.5121 -0.6509  1.8510
 1290TIP3    H219538   5.072   4.866   0.907  0.4737  0.9496  0.9594
 1291TIP3   OH219539   5.268   3.702   7.519  0.4149  0.3891 -0.2125
 1291TIP3    H119540   5.263   3.687   7.613  2.6561  0.4275 -0.0257
 1291TIP3    H219541   5.238   3.792   7.507  1.6099  0.9360  0.6951
 1292TIP3   OH219542   1.577   1.735   0.331 -0.7451 -0.1002  0.0406
 1292TIP3    H119543   1.640   1.720   0.401 -1.5787 -0.1003  0.8021
 1292TIP3    H219544   1.600   1.821   0.296 -0.9494  0.3619  1.0031
 1293TIP3   OH219545   1.923   0.264   1.126 -0.3914 -0.0746 -0.5601
 1293TIP3    H119546   1.884   0.307   1.050  0.8178  0.4557 -0.9025
 1293TIP3    H219547   1.958   0.182   1.092  0.9662  0.5720 -0.8128
 1294TIP3   OH219548   6.203   1.792   0.514  0.4665 -0.2224 -0.1957
 1294TIP3    H119549   6.186   1.869   0.459 -0.0760 -0.2957 -0.1387
 1294TIP3    H219550   6.132   1.731   0.492  2.7662 -2.2015 -2.8375
 1295TIP3   OH219551   4.268   5.409   7.389  0.1475  0.3721 -0.5434
 1295TIP3    H119552   4.276   5.374   7.478 -1.3788 -0.2649 -0.6327
 1295TIP3    H219553   4.330   5.357   7.337  1.0639  0.7623  0.1353
 1296TIP3   OH219554   5.075   5.647   0.555 -0.3758 -0.4339 -0.1298
 1296TIP3    H119555   5.089   5.577   0.491  0.7214 -1.0509  0.7508
 1296TIP3    H219556   4.982   5.669   0.546 -0.7149 -1.9060 -0.5115
 1297TIP3   OH219557   2.304   5.519   6.390  0.0280  0.8444  0.2439
 1297TIP3    H119558   2.278   5.518   6.298 -0.7285  0.9797  0.4500
 1297TIP3    H219559   2.321   5.611   6.409  0.8509  0.7381  0.0647
 1298TIP3   OH219560   4.567   2.247   1.700  0.1615 -0.4115  0.1123
 1298TIP3    H119561   4.515   2.325   1.677 -0.1276 -0.5114  0.4172
 1298TIP3    H219562   4.651   2.282   1.728 -0.1468 -0.1696  0.7608
 1299TIP3   OH219563   1.624   2.192   2.209  0.4320  0.9729 -0.1648
 1299TIP3    H119564   1.574   2.122   2.166  0.5971 -0.0217  1.2160
 1299TIP3    H219565   1.560   2.264   2.218  0.0243  0.7106 -0.8267
 1300TIP3   OH219566   5.799   5.893   0.565 -0.4200  0.2918  0.8153
 1300TIP3    H119567   5.878   5.943   0.546 -1.0333  0.4526 -1.5690
 1300TIP3    H219568   5.744   5.954   0.615  0.1559  0.8498  0.7865
 1301TIP3   OH219569   3.797   0.225   6.679 -0.1160 -0.2144 -0.1717
 1301TIP3    H119570   3.705   0.201   6.663  0.2590 -1.5920 -0.4227
 1301TIP3    H219571   3.809   0.306   6.630 -1.2636  0.1239  0.0655
 1302TIP3   OH219572   4.865   3.127   6.015  0.2343 -0.0610  1.0524
 1302TIP3    H119573   4.919   3.205   5.998  1.6168 -0.7928  1.9583
 1302TIP3    H219574   4.793   3.134   5.952  0.4842  1.7972  0.9175
 1303TIP3   OH219575   1.027   1.768   0.119  0.0730  0.4249  0.0081
 1303TIP3    H119576   1.066   1.717   0.189  1.1050 -0.9770 -1.5147
 1303TIP3    H219577   0.943   1.725   0.101  0.0718  0.4282  0.0056
 1304TIP3   OH219578   1.686   4.384   1.754  0.4135  0.0880 -0.4163
 1304TIP3    H119579   1.612   4.397   1.813  0.7268 -1.1217  0.2793
 1304TIP3    H219580   1.696   4.467   1.708 -1.2142  0.3497 -0.3377
 1305TIP3   OH219581   6.090   2.158   7.634  0.1846 -0.1174 -0.1096
 1305TIP3    H119582   6.146   2.234   7.618 -0.6279  0.6375  0.5275
 1305TIP3    H219583   6.030   2.187   7.703  0.4102 -1.6180  0.7740
 1306TIP3   OH219584   3.221   3.885   1.255 -0.1779  0.3025 -0.6841
 1306TIP3    H119585   3.129   3.880   1.229  0.1742 -0.1760 -1.9319
 1306TIP3    H219586   3.264   3.818   1.202  0.8684  0.4213 -0.0058
 1307TIP3   OH219587   4.556   1.057   0.712 -0.2667 -0.5085  0.2486
 1307TIP3    H119588   4.565   1.128   0.776  0.1343  1.1719 -1.5786
 1307TIP3    H219589   4.465   1.062   0.684  0.1841  0.4299 -1.1116
 1308TIP3   OH219590   1.983   5.310   6.699  0.0096 -0.6193 -0.3372
 1308TIP3    H119591   1.938   5.324   6.615  0.0167  2.3936  0.0437
 1308TIP3    H219592   2.074   5.334   6.682 -0.5530  3.3647  1.1030
 1309TIP3   OH219593   1.539   5.059   2.522 -0.2242 -0.1718 -0.0718
 1309TIP3    H119594   1.516   5.039   2.613  0.7837  2.1208  0.7415
 1309TIP3    H219595   1.629   5.029   2.513 -0.5498 -1.0585 -0.5869
 1310TIP3   OH219596   5.987   1.748   7.522  0.1798  0.0115  0.1455
 1310TIP3    H119597   5.970   1.654   7.530  2.0078 -0.3952 -0.2725
 1310TIP3    H219598   6.003   1.777   7.612 -0.8364  0.0486  0.3315
 1311TIP3   OH219599   6.301   6.285   6.906 -0.6602 -0.0028 -0.2093
 1311TIP3    H119600   6.339   6.222   6.844 -2.4152  0.3002 -1.6987
 1311TIP3    H219601   6.334   6.370   6.876 -2.5874  0.2937 -1.6969
 1312TIP3   OH219602   6.192   2.951   7.507  0.6507  0.5090  0.3112
 1312TIP3    H119603   6.278   2.936   7.548  0.9176  1.4982  0.1531
 1312TIP3    H219604   6.161   3.031   7.549 -0.5395 -0.2398  0.8990
 1313TIP3   OH219605   4.723   0.773   7.735 -0.6386  0.3813  0.5339
 1313TIP3    H119606   4.684   0.690   7.763 -2.0953  0.8845  0.0838
 1313TIP3    H219607   4.757   0.812   7.816 -2.0600  0.4074  1.1597
 1314TIP3   OH219608   1.310   2.974   1.973 -0.8063 -0.1480 -0.2619
 1314TIP3    H119609   1.267   2.912   2.032  1.0657 -1.5861 -0.3102
 1314TIP3    H219610   1.340   2.921   1.899  3.1367  0.1591  0.8665
 1315TIP3   OH219611   4.298   0.216   6.522 -0.1060  0.0196  0.4055
 1315TIP3    H119612   4.338   0.203   6.436  0.3093 -1.4021  0.7917
 1315TIP3    H219613   4.322   0.138   6.572 -2.3865 -0.3554  1.0437
 1316TIP3   OH219614   4.430   2.504   7.521  0.3662 -0.2815 -0.3873
 1316TIP3    H119615   4.489   2.434   7.494  0.8914 -0.3942  0.9846
 1316TIP3    H219616   4.471   2.541   7.599 -1.4123 -0.3960  0.6383
 1317TIP3   OH219617   4.211   0.880   0.149 -0.2216 -0.3452  0.9211
 1317TIP3    H119618   4.131   0.838   0.180 -1.1856  0.2801 -0.5985
 1317TIP3    H219619   4.205   0.876   0.053  0.8000  1.1263  0.7550
 1318TIP3   OH219620   1.008   5.069   1.878 -0.0029  0.2765  0.3633
 1318TIP3    H119621   1.084   5.062   1.819 -0.1750  0.8630  0.0681
 1318TIP3    H219622   1.042   5.110   1.957  0.4889 -1.5517  1.1657
 1319TIP3   OH219623   0.502   2.538   7.074  0.0268 -0.1544 -0.0705
 1319TIP3    H119624   0.531   2.455   7.038  0.3532  0.2413 -0.7376
 1319TIP3    H219625   0.579   2.594   7.070 -0.2207  0.2161  0.2729
 1320TIP3   OH219626   0.364   1.285   5.996  0.4261  0.1356 -0.7007
 1320TIP3    H119627   0.453   1.287   6.032 -0.2018 -0.5156  0.9942
 1320TIP3    H219628   0.321   1.214   6.043 -1.1369  0.7385 -1.1639
 1321TIP3   OH219629   0.827   2.668   0.995 -0.4610 -0.4937  0.0587
 1321TIP3    H119630   0.838   2.645   1.087  0.7269 -0.8351 -0.1535
 1321TIP3    H219631   0.734   2.687   0.986 -0.8986 -2.0134  0.9876
 1322TIP3   OH219632   0.436   3.827   7.449  0.1226 -0.1933 -0.0285
 1322TIP3    H119633   0.506   3.812   7.385  0.1878  0.6900 -0.1681
 1322TIP3    H219634   0.430   3.744   7.496 -0.3756 -1.0822 -1.6000
 1323TIP3   OH219635   1.360   4.566   0.534  0.5170 -0.0931  0.4887
 1323TIP3    H119636   1.355   4.659   0.509 -0.1679 -0.5083 -1.0235
 1323TIP3    H219637   1.434   4.532   0.485  2.5644  0.2110  3.1572
 1324TIP3   OH219638   2.198   1.674   0.510 -0.1352 -0.0363 -0.2610
 1324TIP3    H119639   2.155   1.605   0.562  1.8006 -0.6082  0.6912
 1324TIP3    H219640   2.151   1.754   0.534 -0.5901 -0.5974  0.8234
 1325TIP3   OH219641   2.876   5.462   0.308  0.1424  0.0155  0.5225
 1325TIP3    H119642   2.793   5.414   0.315  1.0927 -1.6530  0.8174
 1325TIP3    H219643   2.917   5.451   0.394  1.7260 -1.2191 -0.3552
 1326TIP3   OH219644   5.601   6.288   0.670  0.1256 -0.1057  0.3455
 1326TIP3    H119645   5.649   6.325   0.596 -1.8709  1.1255 -0.4186
 1326TIP3    H219646   5.632   6.198   0.677  0.3624 -0.2531 -1.9873
 1327TIP3   OH219647   4.726   5.002   7.030 -0.4966 -0.2651  0.3917
 1327TIP3    H119648   4.670   4.928   7.053 -0.8598 -0.2660 -0.4271
 1327TIP3    H219649   4.815   4.971   7.046 -0.6800 -0.6393  0.7016
 1328TIP3   OH219650   5.186   3.964   7.398 -0.6217 -0.4192 -0.2807
 1328TIP3    H119651   5.231   4.015   7.330  0.2941 -2.3896 -1.2527
 1328TIP3    H219652   5.093   3.976   7.379 -0.4465  1.0802 -0.2970
 1329TIP3   OH219653   0.256   2.793   7.751 -0.1025 -0.2360  0.0638
 1329TIP3    H119654   0.203   2.713   7.748 -1.3993  0.6093 -0.4571
 1329TIP3    H219655   0.347   2.761   7.751 -0.5801 -1.6999 -0.1686
 1330TIP3   OH219656   5.610   2.597   1.908 -0.3361 -0.5422  0.4502
 1330TIP3    H119657   5.542   2.543   1.868 -0.6188  0.2685 -0.1969
 1330TIP3    H219658   5.562   2.654   1.969 -0.3891  0.6689 -0.6786
 1331TIP3   OH219659   0.983   4.124   2.017  0.5247  0.1646  0.1901
 1331TIP3    H119660   0.997   4.213   2.050 -2.2173  1.3703 -1.4814
 1331TIP3    H219661   1.020   4.067   2.084  3.3302  2.5212  0.8625
 1332TIP3   OH219662   1.398   1.417   0.396 -0.1583 -0.2008 -0.1934
 1332TIP3    H119663   1.449   1.373   0.328 -0.2859  1.4154 -1.4059
 1332TIP3    H219664   1.463   1.444   0.461  0.0231 -1.4063  0.1346
 1333TIP3   OH219665   5.302   3.335   7.661  0.1522  0.2232 -0.4840
 1333TIP3    H119666   5.250   3.298   7.732  0.8855 -1.4401 -0.7638
 1333TIP3    H219667   5.334   3.419   7.696  0.7759 -0.7033  1.2989
 1334TIP3   OH219668   4.422   5.039   0.488 -0.5645 -0.7262  0.2096
 1334TIP3    H119669   4.460   4.958   0.451 -1.2778 -1.1879  0.4623
 1334TIP3    H219670   4.341   5.010   0.530 -0.2587 -0.0512  1.3055
 1335TIP3   OH219671   0.474   5.213   7.464 -0.1698  0.1234  0.5644
 1335TIP3    H119672   0.552   5.199   7.518  0.3594  1.3830  0.1771
 1335TIP3    H219673   0.454   5.127   7.427  0.2345 -0.4910  1.7129
 1336TIP3   OH219674   2.721   6.072   6.829 -0.1679 -0.4165  0.1985
 1336TIP3    H119675   2.773   6.022   6.891 -1.8988 -1.5748  0.7584
 1336TIP3    H219676   2.683   6.007   6.770 -0.4180  0.4589 -0.6472
 1337TIP3   OH219677   1.555   3.626   6.314  0.0981 -0.4934 -0.3185
 1337TIP3    H119678   1.545   3.531   6.302 -1.1386 -0.4465  0.2061
 1337TIP3    H219679   1.577   3.659   6.227  2.7393 -1.4886 -0.1248
 1338TIP3   OH219680   2.656   5.413   7.700  0.6152  0.1179  0.0173
 1338TIP3    H119681   2.604   5.347   7.746 -0.9533 -0.2462 -2.1073
 1338TIP3    H219682   2.653   5.489   7.758  0.3786 -0.8742  1.3863
 1339TIP3   OH219683   3.173   3.236   0.494  0.1157  0.4698 -0.2292
 1339TIP3    H119684   3.252   3.289   0.501  0.5949 -0.1481 -0.8233
 1339TIP3    H219685   3.200   3.149   0.524 -0.4891  0.3955  0.1092
 1340TIP3   OH219686   5.082   4.921   1.469  0.0781 -0.2963  0.1567
 1340TIP3    H119687   5.057   5.006   1.432  0.3658  0.0809  0.8128
 1340TIP3    H219688   5.157   4.940   1.525 -1.5669 -0.4745  2.5629
 1341TIP3   OH219689   3.350   2.726   0.416  0.0525 -0.1865 -0.5558
 1341TIP3    H119690   3.394   2.656   0.368  1.8081 -0.6526  1.5589
 1341TIP3    H219691   3.401   2.735   0.496 -1.0767  2.4652 -0.0502
 1342TIP3   OH219692   5.714   1.549   1.848 -0.7234  0.5981 -0.5870
 1342TIP3    H119693   5.660   1.624   1.874  0.3356  1.1188  0.1817
 1342TIP3    H219694   5.702   1.542   1.754  0.0999  2.5000 -0.8641
 1343TIP3   OH219695   2.223   2.405   1.956  0.2401 -0.1018 -0.0214
 1343TIP3    H119696   2.130   2.391   1.937  0.1020 -0.0445  0.5940
 1343TIP3    H219697   2.225   2.432   2.048  0.7727  0.9041 -0.3113
 1344TIP3   OH219698   5.876   1.933   0.557  0.5301  0.6129  0.1511
 1344TIP3    H119699   5.808   1.994   0.528  0.8558  0.9335  0.0655
 1344TIP3    H219700   5.954   1.987   0.569  0.4913  0.4399  1.3336
 1345TIP3   OH219701   3.052   0.308   6.939 -0.2804  0.6469 -0.2141
 1345TIP3    H119702   3.140   0.337   6.962 -0.5238  1.1867  0.0439
 1345TIP3    H219703   3.023   0.258   7.016  0.3840 -0.8801 -0.9058
 1346TIP3   OH219704   5.574   4.202   2.220 -0.2999  0.4870 -0.2475
 1346TIP3    H119705   5.560   4.296   2.228 -3.8977  0.3856 -2.8679
 1346TIP3    H219706   5.640   4.194   2.151  0.1852  1.0985  0.1395
 1347TIP3   OH219707   2.643   4.035   6.803 -0.2910 -0.5123 -0.1015
 1347TIP3    H119708   2.656   3.946   6.769 -0.1761  0.1888 -2.0426
 1347TIP3    H219709   2.644   4.091   6.725 -1.0689  1.1298  0.9964
 1348TIP3   OH219710   2.466   3.650   1.387  1.0462 -0.0012 -0.8278
 1348TIP3    H119711   2.439   3.718   1.449  1.5300 -0.7283  0.2061
 1348TIP3    H219712   2.431   3.569   1.423  1.4660 -0.4551 -1.4236
 1349TIP3   OH219713   3.678   0.324   1.682 -0.2155 -0.3677 -0.5154
 1349TIP3    H119714   3.733   0.315   1.604  0.4316 -0.8117 -0.0207
 1349TIP3    H219715   3.719   0.265   1.746  1.1908  2.3163  1.2388
 1350TIP3   OH219716   5.260   4.427   6.231 -0.3459 -0.3381 -0.0447
 1350TIP3    H119717   5.313   4.347   6.235 -0.3896 -0.4249 -1.0351
 1350TIP3    H219718   5.218   4.431   6.317  2.0696  0.3223  1.1972
 1351TIP3   OH219719   5.058   4.811   6.821 -0.3699  0.4686  0.0968
 1351TIP3    H119720   5.068   4.723   6.786 -0.8852  0.0981  0.8707
 1351TIP3    H219721   4.980   4.846   6.778 -1.1008 -0.0481  0.9753
 1352TIP3   OH219722   1.528   4.163   1.698 -0.0486 -0.1755 -0.3281
 1352TIP3    H119723   1.492   4.172   1.610  0.0584 -0.4412 -0.3999
 1352TIP3    H219724   1.587   4.238   1.707 -0.2144 -0.0350 -0.4066
 1353TIP3   OH219725   1.911   1.417   7.545 -0.4799 -0.1340 -0.3575
 1353TIP3    H119726   1.849   1.379   7.483 -0.2452  0.0195 -0.6902
 1353TIP3    H219727   1.898   1.368   7.626 -1.5564  0.3810 -0.2014
 1354TIP3   OH219728   2.431   3.294   6.894  0.0361  0.0065 -0.2373
 1354TIP3    H119729   2.340   3.266   6.894 -0.1099  0.4483  0.5255
 1354TIP3    H219730   2.479   3.222   6.935 -0.3344  0.7884  1.6904
 1355TIP3   OH219731   5.816   2.740   0.054 -0.5693 -0.2647 -0.0227
 1355TIP3    H119732   5.817   2.718  -0.039  2.5890 -1.7183  0.1988
 1355TIP3    H219733   5.872   2.817   0.061  3.0272 -2.6847  0.9300
 1356TIP3   OH219734   3.744   4.066   6.434 -0.4109 -0.9591 -0.2446
 1356TIP3    H119735   3.801   4.055   6.358  0.0437  0.1497 -0.0943
 1356TIP3    H219736   3.800   4.046   6.509  0.4392  1.9188  0.0334
 1357TIP3   OH219737   2.357   4.002   1.884  0.1817 -0.2318 -0.3329
 1357TIP3    H119738   2.445   4.033   1.860 -0.3720  0.8347 -1.0670
 1357TIP3    H219739   2.299   4.075   1.862 -0.4040  1.1042  4.6143
 1358TIP3   OH219740   4.710   3.231   7.365 -0.1925 -0.3620  0.1606
 1358TIP3    H119741   4.682   3.311   7.410  0.9231  0.9987 -1.3949
 1358TIP3    H219742   4.629   3.185   7.345 -0.8059 -0.0684  1.8483
 1359TIP3   OH219743   4.772   0.192   7.053  0.2853 -0.7405 -0.0003
 1359TIP3    H119744   4.833   0.168   6.983  1.5680  0.6228  0.6065
 1359TIP3    H219745   4.827   0.207   7.130 -1.0326 -1.6263  1.1817
 1360TIP3   OH219746   3.307   4.225   7.238 -0.1372 -0.0293 -0.3732
 1360TIP3    H119747   3.371   4.160   7.268 -1.2059 -0.1446  1.8671
 1360TIP3    H219748   3.275   4.191   7.155  0.4524 -1.5704 -0.0052
 1361TIP3   OH219749   0.566   0.092   6.966 -0.5991 -0.6512  0.1715
 1361TIP3    H119750   0.557   0.127   7.054 -1.6507 -1.4463  0.4088
 1361TIP3    H219751   0.487   0.038   6.954  0.2584 -1.7638 -0.6928
 1362TIP3   OH219752   6.204   2.555   1.014 -0.4928  0.3596 -0.2473
 1362TIP3    H119753   6.159   2.484   0.968 -1.8891  1.2929 -0.3851
 1362TIP3    H219754   6.217   2.522   1.102  1.3485 -1.0875 -1.0058
 1363TIP3   OH219755   3.775   5.483   1.026 -0.3013 -0.2737 -0.1374
 1363TIP3    H119756   3.774   5.578   1.011 -1.9216 -0.4666 -1.6760
 1363TIP3    H219757   3.868   5.459   1.028  0.1167  1.2148 -0.6547
 1364TIP3   OH219758   4.568   1.781   0.442  0.0551 -0.3734 -0.4842
 1364TIP3    H119759   4.525   1.709   0.487  0.6717 -0.2382  0.3464
 1364TIP3    H219760   4.641   1.740   0.396  0.2650 -0.3120 -0.2057
 1365TIP3   OH219761   3.067   1.951   0.877  0.7381 -0.4069  0.5611
 1365TIP3    H119762   3.152   1.956   0.835  0.8518  0.3191  0.8647
 1365TIP3    H219763   3.087   1.938   0.970  0.4886 -3.0795  0.3154
 1366TIP3   OH219764   4.211   0.822   1.470 -0.3122  0.1561 -0.3849
 1366TIP3    H119765   4.224   0.896   1.410  1.8567 -0.3644 -0.6558
 1366TIP3    H219766   4.228   0.859   1.556  1.6486 -0.1376 -0.5921
 1367TIP3   OH219767   0.295   4.824   2.078 -0.5313 -0.0428  0.9011
 1367TIP3    H119768   0.307   4.776   2.160 -0.5464  0.0486  0.9563
 1367TIP3    H219769   0.278   4.756   2.013  0.5449 -0.2115  0.7659
 1368TIP3   OH219770   1.014   0.287   0.825  0.1286  0.0995  0.5681
 1368TIP3    H119771   1.047   0.338   0.752  1.0073 -3.1254 -1.4829
 1368TIP3    H219772   0.921   0.275   0.806  0.5980 -1.7865 -0.8438
 1369TIP3   OH219773   0.811   4.075   6.609 -0.1881  0.8722  0.3233
 1369TIP3    H119774   0.746   4.008   6.629 -0.0951  0.7086  0.0863
 1369TIP3    H219775   0.769   4.131   6.544 -0.3404  1.1629  0.6721
 1370TIP3   OH219776   3.333   4.955   7.271  0.2842  0.0525 -0.2836
 1370TIP3    H119777   3.285   4.875   7.292  0.0510  0.3318  0.2827
 1370TIP3    H219778   3.280   4.999   7.205  0.9592 -0.7797 -1.4179
 1371TIP3   OH219779   0.855   2.093   0.768 -0.2428  0.0238  0.2801
 1371TIP3    H119780   0.853   2.114   0.675  0.0583 -1.3383 -0.0487
 1371TIP3    H219781   0.764   2.102   0.797 -0.4918 -0.4067 -0.3543
 1372TIP3   OH219782   2.480   2.790   0.896 -0.1635  0.4840 -0.2908
 1372TIP3    H119783   2.415   2.747   0.951 -1.0184  1.6055 -0.3769
 1372TIP3    H219784   2.470   2.748   0.810  0.5618 -0.6520  0.1571
 1373TIP3   OH219785   0.783   0.229   6.177 -0.4738 -0.1213 -0.4789
 1373TIP3    H119786   0.758   0.193   6.092 -1.3836  1.4710 -0.9199
 1373TIP3    H219787   0.703   0.221   6.229 -0.1937 -0.2228 -0.0610
 1374TIP3   OH219788   1.829   2.927   7.080 -0.2619  0.9596 -0.7202
 1374TIP3    H119789   1.756   2.983   7.052 -0.9459  0.7973  0.6718
 1374TIP3    H219790   1.812   2.843   7.038  0.3888  1.5509 -2.2480
 1375TIP3   OH219791   5.454   2.908   1.214 -0.4323  0.8440  0.1254
 1375TIP3    H119792   5.455   2.822   1.172 -1.0562  0.0442  1.6488
 1375TIP3    H219793   5.519   2.960   1.167  0.2682 -0.6043 -0.5358
 1376TIP3   OH219794   4.440   2.023   6.910 -0.3173 -0.0684  0.6426
 1376TIP3    H119795   4.425   1.981   6.995  0.2878  2.3480  2.0186
 1376TIP3    H219796   4.514   2.082   6.925 -0.6333  0.9282 -1.4024
 1377TIP3   OH219797   2.835   0.326   1.870  0.1461  0.3740  0.0342
 1377TIP3    H119798   2.792   0.260   1.816 -0.5955  0.4161  0.5537
 1377TIP3    H219799   2.821   0.296   1.960  0.1077  1.0600  0.2589
 1378TIP3   OH219800   0.338   5.179   1.817  0.0498  0.0903  0.1301
 1378TIP3    H119801   0.349   5.166   1.911 -0.0506  1.1911  0.3029
 1378TIP3    H219802   0.244   5.194   1.805  0.3217  1.9636  0.1327
 1379TIP3   OH219803   6.268   6.144   0.908 -0.3492  0.2170  0.3134
 1379TIP3    H119804   6.178   6.169   0.889  0.0666  1.2638 -0.4428
 1379TIP3    H219805   6.315   6.228   0.913  0.2477 -0.1865  2.5822
 1380TIP3   OH219806   4.310   0.722   7.132 -0.3811  0.4342 -0.3754
 1380TIP3    H119807   4.257   0.769   7.197 -0.7968  1.5316 -1.4564
 1380TIP3    H219808   4.370   0.669   7.184 -1.3841  0.4765  0.8937
 1381TIP3   OH219809   4.449   4.699   1.512 -0.2490  0.3194  0.1400
 1381TIP3    H119810   4.380   4.636   1.493  0.2490  0.4622 -2.6728
 1381TIP3    H219811   4.528   4.647   1.525  0.3307  0.2248 -2.9676
 1382TIP3   OH219812   2.026   0.172   1.632  0.2866  0.2803 -0.0523
 1382TIP3    H119813   2.081   0.170   1.711 -1.7415  0.4192  1.4202
 1382TIP3    H219814   2.013   0.079   1.610 -0.9494  0.1524  1.1228
 1383TIP3   OH219815   3.567   1.190   0.741 -0.8783 -0.1209 -0.0670
 1383TIP3    H119816   3.554   1.267   0.795  2.0814  0.5119 -0.1258
 1383TIP3    H219817   3.517   1.207   0.661  0.8227  2.4432 -0.6806
 1384TIP3   OH219818   5.234   0.023   6.850 -0.2258 -0.0105  0.6396
 1384TIP3    H119819   5.264   0.114   6.856  1.1067 -0.3757 -0.0480
 1384TIP3    H219820   5.145   0.029   6.816  0.0743  1.0065  0.0005
 1385TIP3   OH219821   1.713   2.449   6.913 -0.4108 -0.2924  0.6272
 1385TIP3    H119822   1.778   2.513   6.887 -0.4717 -0.3956  0.1946
 1385TIP3    H219823   1.763   2.368   6.926 -0.4216 -0.3215  0.4952
 1386TIP3   OH219824   4.460   5.529   1.152  0.0042  0.2617  0.1534
 1386TIP3    H119825   4.394   5.465   1.177 -0.1573  0.4143  0.1190
 1386TIP3    H219826   4.434   5.558   1.065  0.2220  0.1843  0.0607
 1387TIP3   OH219827   6.116   2.512   6.586 -0.0573 -0.2925  0.0120
 1387TIP3    H119828   6.119   2.502   6.491 -0.8877 -2.4200  0.1669
 1387TIP3    H219829   6.097   2.424   6.619 -1.1677  0.6639  2.0833
 1388TIP3   OH219830   4.284   2.488   6.972  0.2608 -0.1048 -0.1144
 1388TIP3    H119831   4.334   2.452   7.046 -1.5135  0.1109  1.2760
 1388TIP3    H219832   4.288   2.420   6.905  0.4476 -1.1125  0.8757
 1389TIP3   OH219833   0.906   3.396   7.557 -0.0515  0.0254 -0.5018
 1389TIP3    H119834   0.993   3.418   7.524 -0.1528 -1.1391 -1.6636
 1389TIP3    H219835   0.909   3.301   7.570 -0.7426  0.1583  0.7121
 1390TIP3   OH219836   3.610   4.852   6.198  0.3462  0.3242 -0.4673
 1390TIP3    H119837   3.663   4.923   6.161 -1.2871  0.8469 -1.9519
 1390TIP3    H219838   3.636   4.775   6.148 -0.7591  0.7272 -1.7214
 1391TIP3   OH219839   2.931   4.488   0.863  0.6200 -0.1898  0.0539
 1391TIP3    H119840   2.924   4.392   0.867  1.8106 -0.2620  0.7761
 1391TIP3    H219841   2.900   4.510   0.775  1.9858 -1.4116 -0.7735
 1392TIP3   OH219842   1.510   0.381   1.617 -0.2376  0.0924 -0.5484
 1392TIP3    H119843   1.513   0.386   1.522 -0.7906 -0.1779 -0.5846
 1392TIP3    H219844   1.455   0.305   1.635  0.7911 -0.5634 -0.0137
 1393TIP3   OH219845   1.442   5.334   6.474 -0.3253 -0.1115  0.0798
 1393TIP3    H119846   1.447   5.285   6.392 -1.3032  1.4175 -0.9325
 1393TIP3    H219847   1.349   5.330   6.498  0.0966 -1.4805  1.7564
 1394TIP3   OH219848   1.884   6.209   7.204 -0.1579 -0.4460 -0.2656
 1394TIP3    H119849   1.793   6.184   7.219  0.1506 -0.8101  1.1700
 1394TIP3    H219850   1.879   6.299   7.173 -0.9669  0.0665  1.2309
 1395TIP3   OH219851   5.510   4.624   6.678 -0.0041  0.5900 -0.9492
 1395TIP3    H119852   5.492   4.593   6.590 -2.8571  0.7367 -0.4933
 1395TIP3    H219853   5.470   4.558   6.735  3.9299 -0.9166  0.4830
 1396TIP3   OH219854   1.192   3.276   7.255  0.1301 -0.4346 -0.2188
 1396TIP3    H119855   1.102   3.285   7.223  0.8890 -0.1987 -2.4728
 1396TIP3    H219856   1.208   3.182   7.255 -0.2121 -0.5007  0.5398
 1397TIP3   OH219857   3.074   1.813   7.080 -0.1826  0.7792 -0.0425
 1397TIP3    H119858   3.097   1.905   7.065  1.0382  0.5953  0.5929
 1397TIP3    H219859   3.144   1.779   7.135 -0.1353 -0.7919 -1.0154
 1398TIP3   OH219860   0.160   1.719   5.757  0.5343  0.4340  0.1885
 1398TIP3    H119861   0.078   1.703   5.709  0.2135 -0.8827  1.1125
 1398TIP3    H219862   0.190   1.804   5.725 -1.3043  1.0464 -0.0352
 1399TIP3   OH219863   3.926   2.958   1.504  0.2860  0.3183  0.6505
 1399TIP3    H119864   3.979   3.023   1.458  1.5230 -0.8631  0.3380
 1399TIP3    H219865   3.916   2.992   1.592 -0.2817  1.5801  0.1209
 1400TIP3   OH219866   3.547   3.525   7.487  0.0681  0.1446 -0.2608
 1400TIP3    H119867   3.565   3.480   7.405  0.5069 -1.0146  0.4613
 1400TIP3    H219868   3.518   3.612   7.460  2.9258  0.7981 -1.6006
 1401TIP3   OH219869   5.451   1.441   7.754 -0.0132 -0.0622 -0.3226
 1401TIP3    H119870   5.387   1.505   7.784  1.6428  0.8799  1.3600
 1401TIP3    H219871   5.427   1.425   7.663 -1.6090  1.5128 -0.2375
 1402TIP3   OH219872   2.104   1.126   7.036  0.2629  0.0304  0.2492
 1402TIP3    H119873   2.072   1.096   7.121  0.6107  0.0274  0.3813
 1402TIP3    H219874   2.183   1.075   7.021  0.4052  0.2955  0.0938
 1403TIP3   OH219875   0.562   0.791   2.533 -0.5233  0.4282 -0.4589
 1403TIP3    H119876   0.647   0.800   2.576  0.0393 -0.3733 -1.3734
 1403TIP3    H219877   0.498   0.800   2.604  0.3072  1.3033  0.1964
 1404TIP3   OH219878   1.588   3.024   6.977 -0.4700  0.1237  0.1822
 1404TIP3    H119879   1.609   2.954   6.915  0.9237  0.6167  0.0598
 1404TIP3    H219880   1.566   3.099   6.921  1.0284  0.6413  0.2391
 1405TIP3   OH219881   5.009   0.749   6.700  0.1696 -0.1423 -0.1830
 1405TIP3    H119882   4.925   0.707   6.681  0.6628 -0.9836 -0.5989
 1405TIP3    H219883   5.073   0.678   6.693  1.1255  0.8060 -1.6248
 1406TIP3   OH219884   1.715   0.507   0.985  0.3336  0.4395 -0.4651
 1406TIP3    H119885   1.637   0.496   1.040  0.8500 -1.2288 -0.0054
 1406TIP3    H219886   1.719   0.427   0.932  0.2963  1.6722 -2.4014
 1407TIP3   OH219887   0.029   0.781   0.905 -0.1705  0.1809 -0.5245
 1407TIP3    H119888   0.111   0.738   0.882  0.7361  1.0856  0.8523
 1407TIP3    H219889  -0.020   0.715   0.955 -0.1070 -0.2213 -0.9875
 1408TIP3   OH219890   2.071   6.049   2.010  0.2693 -0.3341 -0.0172
 1408TIP3    H119891   2.067   6.137   1.974  0.5662 -0.9779 -1.7134
 1408TIP3    H219892   2.048   6.060   2.102 -0.1160  1.4465 -0.2862
 1409TIP3   OH219893   4.069   5.915   0.705 -0.0728 -0.2429 -0.0355
 1409TIP3    H119894   4.089   5.858   0.631  1.3527  0.6438 -0.3807
 1409TIP3    H219895   3.992   5.964   0.678 -0.2001 -0.6846 -0.4865
 1410TIP3   OH219896   1.307   2.645   0.773 -0.3658 -0.2322 -0.2234
 1410TIP3    H119897   1.315   2.550   0.784 -0.7844 -0.0662  2.1690
 1410TIP3    H219898   1.220   2.658   0.736 -0.1915 -0.7799 -0.8419
 1411TIP3   OH219899   3.357   2.651   0.077  0.5806 -0.0111 -0.1386
 1411TIP3    H119900   3.426   2.598   0.116 -0.1838 -0.5127  0.5755
 1411TIP3    H219901   3.383   2.661  -0.014  0.7087 -1.6974 -0.3199
 1412TIP3   OH219902   3.897   5.785   0.372  0.0947 -0.5061  0.2268
 1412TIP3    H119903   3.807   5.755   0.361 -0.5402  0.5753  2.1088
 1412TIP3    H219904   3.924   5.809   0.283 -1.6402 -0.3546 -0.3082
 1413TIP3   OH219905   4.282   2.058   2.126 -0.0316  0.9513 -0.4461
 1413TIP3    H119906   4.337   1.982   2.145 -0.0455  0.9155 -0.5495
 1413TIP3    H219907   4.306   2.122   2.193 -0.8363  0.4375  0.3521
 1414TIP3   OH219908   4.218   5.632   2.403 -0.0113 -0.0467  0.2637
 1414TIP3    H119909   4.278   5.682   2.347 -1.4084  2.1033  0.5762
 1414TIP3    H219910   4.272   5.560   2.437  1.3198 -0.4563 -2.4728
 1415TIP3   OH219911   5.340   5.939   7.275  0.1061 -0.5862  0.1556
 1415TIP3    H119912   5.361   5.902   7.189 -0.7647 -1.7119  0.4154
 1415TIP3    H219913   5.392   5.888   7.337  0.3756 -0.0821  0.3537
 1416TIP3   OH219914   4.090   2.117   1.137 -0.2627  0.7799 -0.3532
 1416TIP3    H119915   4.113   2.071   1.217 -0.5599  1.4658  0.1330
 1416TIP3    H219916   4.170   2.163   1.112 -0.3274  1.0037 -0.1485
 1417TIP3   OH219917   6.084   5.729   7.228 -0.3208 -0.3106  0.1448
 1417TIP3    H119918   6.090   5.662   7.161  0.5686 -1.5446  1.4109
 1417TIP3    H219919   6.069   5.810   7.179  0.5889 -1.1135 -1.5611
 1418TIP3   OH219920   2.289   5.005   1.392 -0.1821 -0.2225 -0.2442
 1418TIP3    H119921   2.194   5.011   1.385 -0.2073  0.3179  0.4138
 1418TIP3    H219922   2.319   5.096   1.392  0.1578 -0.2972  1.6267
 1419TIP3   OH219923   2.359   4.511   6.321 -0.3830 -0.0219  0.7756
 1419TIP3    H119924   2.429   4.479   6.263 -1.8245  0.4684 -1.3548
 1419TIP3    H219925   2.279   4.474   6.284 -1.3824  0.2956  2.5199
 1420TIP3   OH219926   4.427   2.933   6.617 -0.4652 -0.1264  0.1681
 1420TIP3    H119927   4.364   2.919   6.546 -0.4358  1.1053 -0.1268
 1420TIP3    H219928   4.412   2.861   6.678 -0.7238 -1.0213 -0.9196
 1421TIP3   OH219929   3.258   2.264   7.761 -0.4690 -0.0880 -0.4576
 1421TIP3    H119930   3.257   2.169   7.749 -0.0981 -0.1914  0.2406
 1421TIP3    H219931   3.190   2.281   7.825  0.4554 -0.0707  0.5541
 1422TIP3   OH219932   1.008   3.112   1.919  0.2238 -0.1058  0.4149
 1422TIP3    H119933   1.077   3.050   1.897  0.1984 -0.5373  1.5301
 1422TIP3    H219934   0.934   3.058   1.948  0.1683  0.4227  1.2985
 1423TIP3   OH219935   3.013   4.603   7.659 -0.1311 -0.3108 -0.5733
 1423TIP3    H119936   2.984   4.512   7.660 -0.8865 -0.1285  2.0466
 1423TIP3    H219937   2.937   4.652   7.627  0.5640 -0.6182 -2.8314
 1424TIP3   OH219938   6.140   3.686   2.694 -0.3647  0.5166  0.5624
 1424TIP3    H119939   6.231   3.710   2.709 -0.6923  2.0527  0.2329
 1424TIP3    H219940   6.145   3.598   2.655  0.8392 -0.2979  2.3961
 1425TIP3   OH219941   5.977   1.707   1.484  0.2934  0.2300 -0.1669
 1425TIP3    H119942   5.999   1.657   1.563 -0.5010  0.7594  0.4029
 1425TIP3    H219943   6.058   1.707   1.433  0.4543 -1.2014  0.0461
 1426TIP3   OH219944   0.314   6.052   1.941 -0.4349  0.4957 -0.3372
 1426TIP3    H119945   0.356   6.046   2.027 -0.9634  0.4555 -0.0786
 1426TIP3    H219946   0.310   5.961   1.910  1.7120  0.6777 -1.3808
 1427TIP3   OH219947   2.623   1.267   1.405 -0.4257  0.0308 -0.5368
 1427TIP3    H119948   2.540   1.301   1.371 -0.6894  0.4374  0.4881
 1427TIP3    H219949   2.609   1.173   1.415 -1.8886  0.4614  2.5904
 1428TIP3   OH219950   6.134   1.661   1.724 -0.1417  0.2891 -0.7091
 1428TIP3    H119951   6.125   1.737   1.781  1.4085 -0.5222  0.6990
 1428TIP3    H219952   6.200   1.687   1.659  0.6189  0.0827 -0.0415
 1429TIP3   OH219953   1.880   4.682   0.407  0.3925  0.0160  0.5757
 1429TIP3    H119954   1.797   4.730   0.415 -1.2917 -2.6635  0.5951
 1429TIP3    H219955   1.947   4.750   0.410 -1.7367  2.2609  1.4533
 1430TIP3   OH219956   2.536   0.268   0.740  0.8148 -0.5609  0.2055
 1430TIP3    H119957   2.528   0.261   0.835  0.7691 -0.0681  0.2400
 1430TIP3    H219958   2.630   0.279   0.725  1.0460 -2.4153  0.0650
 1431TIP3   OH219959   4.779   0.909   7.292  0.0416  0.2308  0.8868
 1431TIP3    H119960   4.790   0.826   7.246  0.1977 -0.0390  1.4144
 1431TIP3    H219961   4.712   0.955   7.241 -0.4996 -0.4706  0.9500
 1432TIP3   OH219962   1.245   5.200   7.308  0.4419  0.3159 -0.2303
 1432TIP3    H119963   1.297   5.277   7.286  0.7393  0.0154 -0.5968
 1432TIP3    H219964   1.290   5.128   7.264  1.0194 -0.2979  1.2950
 1433TIP3   OH219965   5.023   1.860   7.332 -0.2128  0.5035 -0.0204
 1433TIP3    H119966   5.024   1.936   7.274  0.1972  0.9854  0.5945
 1433TIP3    H219967   4.935   1.858   7.369 -0.5271  0.0920 -0.7827
 1434TIP3   OH219968   4.356   5.263   7.609 -0.6611  0.6358  0.2062
 1434TIP3    H119969   4.265   5.232   7.604 -0.4325 -0.4326  1.8419
 1434TIP3    H219970   4.408   5.186   7.585 -0.1719  1.3110 -0.9533
 1435TIP3   OH219971   1.635   6.205   0.764  0.2507  0.4554  0.1483
 1435TIP3    H119972   1.556   6.176   0.719 -0.5341  0.1841  1.6305
 1435TIP3    H219973   1.687   6.250   0.697 -0.9099  0.1607 -0.9685
 1436TIP3   OH219974   1.755   5.728   1.078 -0.3268  0.5993  0.3287
 1436TIP3    H119975   1.684   5.694   1.023 -1.4658  0.5907  1.7391
 1436TIP3    H219976   1.808   5.651   1.098 -0.5641  0.3975  0.1973
 1437TIP3   OH219977   0.540   2.367   6.530  0.4385 -0.0586  0.1773
 1437TIP3    H119978   0.519   2.356   6.437  1.5664  1.1988 -0.2670
 1437TIP3    H219979   0.584   2.452   6.535  0.2619 -0.0212  1.8982
 1438TIP3   OH219980   3.200   3.107   1.931  0.0991  0.3762  0.6047
 1438TIP3    H119981   3.173   3.196   1.954  1.1995  1.6046 -2.3977
 1438TIP3    H219982   3.119   3.056   1.934 -0.3113  0.9758  3.9513
 1439TIP3   OH219983   4.718   4.062   1.142 -0.2093  0.4720  0.5237
 1439TIP3    H119984   4.735   4.155   1.124 -0.8792  0.9667  2.2437
 1439TIP3    H219985   4.764   4.015   1.072  0.1628  2.0929 -0.3643
 1440TIP3   OH219986   5.862   0.847   0.532  0.0228 -0.6520  0.5220
 1440TIP3    H119987   5.880   0.766   0.484 -0.1661 -0.5121  0.2107
 1440TIP3    H219988   5.914   0.840   0.612  1.7325 -0.1263 -0.4833
 1441TIP3   OH219989   0.089   0.519   6.182 -0.4204  0.0524  0.5494
 1441TIP3    H119990   0.105   0.436   6.136  1.1592  1.5987 -1.8745
 1441TIP3    H219991   0.060   0.492   6.269 -0.0255 -3.0540 -0.1593
 1442TIP3   OH219992   1.809   4.069   7.025 -0.3224  0.2131  0.1465
 1442TIP3    H119993   1.860   4.001   6.980  1.3460  1.0842  0.6121
 1442TIP3    H219994   1.809   4.142   6.964  0.1382  0.6666  0.6716
 1443TIP3   OH219995   2.087   1.015   6.731 -0.1813 -0.3098  0.2445
 1443TIP3    H119996   2.002   1.049   6.759 -1.1151 -1.3484 -1.2019
 1443TIP3    H219997   2.083   0.921   6.750  1.3280 -0.1288  1.7222
 1444TIP3   OH219998   3.069   4.269   7.410 -0.2159  0.0103  0.2796
 1444TIP3    H119999   3.009   4.196   7.395  0.2348 -0.2459 -0.2982
 1444TIP3    H220000   3.155   4.236   7.384 -0.0022  0.7316  0.0315
 1445TIP3   OH220001   4.439   4.867   1.294  0.3239 -0.0294  0.3275
 1445TIP3    H120002   4.441   4.820   1.211  1.8659  1.8625 -0.7688
 1445TIP3    H220003   4.416   4.800   1.359 -2.1364 -1.3356 -1.7114
 1446TIP3   OH220004   0.256   3.209   6.795  0.3755  0.4403  0.1382
 1446TIP3    H120005   0.226   3.274   6.859  0.8013  1.6058 -0.8001
 1446TIP3    H220006   0.227   3.125   6.831 -0.8451  1.2004  1.0378
 1447TIP3   OH220007   1.680   2.879   6.766  0.3662 -0.2784 -0.1693
 1447TIP3    H120008   1.641   2.805   6.719 -1.6145  1.1622 -0.9605
 1447TIP3    H220009   1.733   2.924   6.701 -1.8442  1.3337 -1.0083
 1448TIP3   OH220010   1.425   5.777   1.626 -0.5281 -0.0362 -0.0908
 1448TIP3    H120011   1.466   5.761   1.711  0.5969  2.1018 -0.1599
 1448TIP3    H220012   1.345   5.724   1.628 -0.0978 -0.7196  1.9405
 1449TIP3   OH220013   0.203   2.421   7.514 -0.2840 -0.5430  0.1869
 1449TIP3    H120014   0.282   2.471   7.532 -0.2802 -0.8082  0.9341
 1449TIP3    H220015   0.174   2.452   7.428  0.4977 -0.2780  0.0104
 1450TIP3   OH220016   2.472   1.026   1.429 -1.0084 -0.0724  0.4409
 1450TIP3    H120017   2.473   0.930   1.433  1.7490 -0.1157  0.9019
 1450TIP3    H220018   2.489   1.053   1.520 -1.0557  0.8236  0.1843
 1451TIP3   OH220019   0.507   0.398   0.811 -0.3783 -0.0985 -0.6037
 1451TIP3    H120020   0.601   0.382   0.816  0.2541  3.3636  3.9437
 1451TIP3    H220021   0.499   0.490   0.786 -2.7503 -0.7419 -2.6052
 1452TIP3   OH220022   5.624   0.419   7.172  0.0886 -0.4537 -0.0476
 1452TIP3    H120023   5.692   0.480   7.142 -0.6370  0.2303 -0.3580
 1452TIP3    H220024   5.607   0.445   7.262 -0.1662 -0.2411 -0.1554
 1453TIP3   OH220025   0.947   5.801   1.507 -0.5439  0.0647 -0.0933
 1453TIP3    H120026   0.876   5.859   1.535 -1.8165 -1.4107 -0.1658
 1453TIP3    H220027   1.009   5.860   1.463 -0.3117  1.8379  2.3920
 1454TIP3   OH220028   2.733   0.572   1.347  1.1086  0.1841 -0.0233
 1454TIP3    H120029   2.752   0.665   1.348  0.2298  0.3594  0.8137
 1454TIP3    H220030   2.669   0.559   1.417 -0.8488 -0.6059 -1.8465
 1455TIP3   OH220031   2.362   0.958   0.439  0.6323  0.4259 -0.4996
 1455TIP3    H120032   2.409   0.895   0.384 -1.2181 -1.4170 -0.0842
 1455TIP3    H220033   2.385   0.935   0.528  0.3333  0.6627 -0.3580
 1456TIP3   OH220034   5.540   5.046   6.165  0.1677  0.1404 -0.1542
 1456TIP3    H120035   5.596   5.095   6.225 -1.2877  0.9401  0.5955
 1456TIP3    H220036   5.459   5.033   6.213  0.2266 -2.4152 -0.5928
 1457TIP3   OH220037   4.817   1.988   0.820 -0.2140  0.9400  0.1714
 1457TIP3    H120038   4.912   1.997   0.821 -0.2285  2.5678 -2.8893
 1457TIP3    H220039   4.803   1.894   0.807  1.0645  0.9311 -1.4455
 1458TIP3   OH220040   0.493   0.559   1.937  0.4132 -0.5401 -0.0160
 1458TIP3    H120041   0.487   0.653   1.954 -3.4561 -0.5998 -0.0092
 1458TIP3    H220042   0.536   0.523   2.014 -0.4794  0.9857  1.2587
 1459TIP3   OH220043   3.580   4.741   7.436  0.0422 -0.3496  0.3087
 1459TIP3    H120044   3.572   4.775   7.347 -0.3004  1.2502  0.9169
 1459TIP3    H220045   3.590   4.819   7.491 -1.5344 -1.1778  1.8825
 1460TIP3   OH220046   4.063   0.658   1.271  0.1514  0.0106  0.1913
 1460TIP3    H120047   4.007   0.586   1.301  0.7474 -0.1967  0.8262
 1460TIP3    H220048   4.121   0.676   1.345  0.5865  0.5678 -0.2747
 1461TIP3   OH220049   0.838   1.710   0.388 -0.3513 -0.1683  0.4198
 1461TIP3    H120050   0.784   1.785   0.414  0.9667  1.0202 -0.1067
 1461TIP3    H220051   0.874   1.676   0.470 -1.4168 -0.5990  0.7161
 1462TIP3   OH220052   2.096   1.236   7.355 -0.1917  0.0079 -0.2412
 1462TIP3    H120053   2.108   1.331   7.360 -0.0900  0.0077 -0.4701
 1462TIP3    H220054   2.182   1.200   7.379  0.0756 -0.0063 -1.1718
 1463TIP3   OH220055   4.718   4.069   1.854 -0.0448 -0.4167  0.7838
 1463TIP3    H120056   4.690   4.142   1.799 -0.3750  0.2286  1.7771
 1463TIP3    H220057   4.805   4.045   1.820 -0.2620 -0.0756 -0.0394
 1464TIP3   OH220058   4.890   2.662   6.680  0.1033  0.9757 -0.1495
 1464TIP3    H120059   4.953   2.698   6.617  0.2490  1.3683  0.2123
 1464TIP3    H220060   4.857   2.583   6.638  0.5524  0.9730 -0.5133
 1465TIP3   OH220061   1.886   0.171   7.183 -0.1694  0.0266  0.3639
 1465TIP3    H120062   1.922   0.251   7.146 -0.0366 -0.1065  0.2046
 1465TIP3    H220063   1.891   0.183   7.278 -2.0177  1.0632  0.3816
 1466TIP3   OH220064   5.457   1.416   1.138 -0.1511 -0.7941  0.6937
 1466TIP3    H120065   5.424   1.360   1.209 -3.1689 -1.5476 -1.0948
 1466TIP3    H220066   5.420   1.502   1.156  1.0689 -0.3780  1.2650
 1467TIP3   OH220067   1.636   0.647   1.910  0.4682 -0.1946 -0.2032
 1467TIP3    H120068   1.609   0.738   1.900 -0.9639 -0.5861 -0.1372
 1467TIP3    H220069   1.561   0.596   1.879  1.8357 -1.3694 -1.7975
 1468TIP3   OH220070   3.627   1.122   6.167  0.1712  0.5245 -0.0617
 1468TIP3    H120071   3.692   1.168   6.113  0.1197  2.7698  1.6429
 1468TIP3    H220072   3.552   1.181   6.169 -0.8636 -0.7529  0.3133
 1469TIP3   OH220073   1.873   1.286   0.020 -0.3010  0.4674  0.3424
 1469TIP3    H120074   1.821   1.207   0.036  0.0317  0.2416  0.2977
 1469TIP3    H220075   1.852   1.343   0.094 -0.3008  0.2141  0.5394
 1470TIP3   OH220076   0.021   0.220   6.812  0.1261 -0.2362  0.1931
 1470TIP3    H120077   0.021   0.252   6.722 -0.8794 -0.0385  0.2533
 1470TIP3    H220078   0.043   0.296   6.865 -0.6871  0.0026  0.2107
 1471TIP3   OH220079   5.905   1.046   1.967 -0.5143  0.2414 -0.2991
 1471TIP3    H120080   5.844   0.995   2.021  0.0284 -0.1102 -0.0016
 1471TIP3    H220081   5.857   1.126   1.945 -1.1943 -0.1645 -0.3352
 1472TIP3   OH220082   5.860   2.579   6.685  0.2731 -0.4034  0.0851
 1472TIP3    H120083   5.953   2.571   6.663  0.8016  2.9720  0.5805
 1472TIP3    H220084   5.815   2.563   6.602  1.4540  0.0287 -0.6810
 1473TIP3   OH220085   6.087   0.547   7.061 -0.0215 -0.1168 -0.5515
 1473TIP3    H120086   6.096   0.452   7.056 -0.7016 -0.1716 -0.9679
 1473TIP3    H220087   6.166   0.577   7.105 -0.3429 -0.9862  0.6905
 1474TIP3   OH220088   6.276   1.370   6.574  0.1128  0.0070  0.0661
 1474TIP3    H120089   6.343   1.379   6.506  0.9544  1.6549  1.0534
 1474TIP3    H220090   6.303   1.294   6.625  0.9159  0.3244  0.1171
 1475TIP3   OH220091   4.328   3.764   2.322 -0.2871  0.4343  0.3765
 1475TIP3    H120092   4.315   3.684   2.372 -0.9386  0.6983  0.6471
 1475TIP3    H220093   4.239   3.795   2.303 -0.0497  1.6008  1.0843
 1476TIP3   OH220094   3.322   5.378   1.378  0.1649  0.0808 -0.5704
 1476TIP3    H120095   3.305   5.284   1.388 -0.3379  0.1252 -0.9476
 1476TIP3    H220096   3.319   5.393   1.284 -0.4443  0.5962 -0.4747
 1477TIP3   OH220097   6.259   0.459   6.429 -0.3520  0.6638 -0.2154
 1477TIP3    H120098   6.184   0.401   6.415  1.0501 -1.2444 -0.3500
 1477TIP3    H220099   6.264   0.470   6.523 -0.9877  1.0915 -0.2260
 1478TIP3   OH220100   3.153   3.982   2.407  0.4066  0.0249 -0.0130
 1478TIP3    H120101   3.107   3.914   2.456  0.9526  0.1339  0.6613
 1478TIP3    H220102   3.159   4.055   2.469  0.5790  0.3791 -0.4482
 1479TIP3   OH220103   5.034   2.594   6.368 -0.2642  0.1940  0.0310
 1479TIP3    H120104   4.972   2.553   6.307  0.3173 -0.2803 -0.2565
 1479TIP3    H220105   5.113   2.606   6.315  0.2811 -0.3117  0.7226
 1480TIP3   OH220106   1.900   2.226   7.268  0.0784  0.1112 -0.1020
 1480TIP3    H120107   1.892   2.156   7.203  0.4896  0.8169 -0.9280
 1480TIP3    H220108   1.989   2.258   7.258  0.2692 -0.0118  1.0801
 1481TIP3   OH220109   1.360   1.806   2.784  0.0170  0.1455  0.1172
 1481TIP3    H120110   1.283   1.841   2.740  0.4591 -0.7190 -1.4129
 1481TIP3    H220111   1.404   1.883   2.819 -0.2271  0.9092 -1.1811
 1482TIP3   OH220112   1.871   2.033   1.588 -0.2146  0.5509 -0.4303
 1482TIP3    H120113   1.841   2.021   1.678  1.4286  1.0223  0.2203
 1482TIP3    H220114   1.818   2.105   1.555 -1.4981 -0.2499 -0.1856
 1483TIP3   OH220115   2.268   2.911   1.268 -0.0326 -0.2223 -0.3051
 1483TIP3    H120116   2.347   2.857   1.276 -0.6632 -1.0095  0.8723
 1483TIP3    H220117   2.283   2.964   1.190  0.8633 -1.6821 -1.1766
 1484TIP3   OH220118   4.416   3.888   6.249  0.0474 -0.1621 -0.3536
 1484TIP3    H120119   4.364   3.870   6.171  0.1360 -0.2979 -0.3822
 1484TIP3    H220120   4.474   3.812   6.257  1.0073  0.4752 -0.9442
 1485TIP3   OH220121   4.898   2.043   1.336  0.2685 -0.3011 -0.2384
 1485TIP3    H120122   4.840   2.092   1.277 -0.4343  0.2141  0.8493
 1485TIP3    H220123   4.894   2.091   1.419 -0.8208 -2.4300  1.0415
 1486TIP3   OH220124   1.648   3.976   1.264  0.0226  0.2803 -0.2608
 1486TIP3    H120125   1.654   3.887   1.298  0.7684  0.0546 -0.9689
 1486TIP3    H220126   1.613   3.966   1.175 -2.6518  0.9217  0.6168
 1487TIP3   OH220127   0.573   4.697   7.590  0.5685 -0.1930 -0.2775
 1487TIP3    H120128   0.647   4.687   7.530  0.1371  1.1826 -1.0753
 1487TIP3    H220129   0.511   4.630   7.561  0.7593 -0.1710 -0.7544
 1488TIP3   OH220130   6.098   1.892   6.890 -0.0587  0.1415 -0.1702
 1488TIP3    H120131   6.031   1.867   6.826 -0.3852 -1.8876  0.8778
 1488TIP3    H220132   6.049   1.925   6.965 -0.0583 -2.2323  0.9838
 1489TIP3   OH220133   2.182   5.350   7.357 -0.0746  0.2438  0.2547
 1489TIP3    H120134   2.165   5.296   7.434 -0.0165 -0.1639 -0.0152
 1489TIP3    H220135   2.130   5.310   7.288 -2.0238  2.0086  0.6227
 1490TIP3   OH220136   1.766   6.160   1.366 -0.3518 -0.3175  0.2296
 1490TIP3    H120137   1.773   6.148   1.271 -0.4145 -0.0065  0.1848
 1490TIP3    H220138   1.706   6.092   1.395 -0.6563 -0.1540 -0.0133
 1491TIP3   OH220139   5.863   2.546   1.445  0.1111 -0.4066 -0.5964
 1491TIP3    H120140   5.811   2.553   1.525 -0.5619 -0.9948 -0.9746
 1491TIP3    H220141   5.824   2.473   1.397 -1.8933  2.0928 -3.1692
 1492TIP3   OH220142   4.168   2.306   6.126  0.0479  0.2601 -0.1133
 1492TIP3    H120143   4.125   2.285   6.209 -1.2247 -0.5742 -0.9542
 1492TIP3    H220144   4.169   2.402   6.123 -0.6689  0.2930  0.4848
 1493TIP3   OH220145   3.868   1.448   5.832  0.1908 -0.2105  0.4638
 1493TIP3    H120146   3.954   1.453   5.874  0.8664 -2.1559 -0.5510
 1493TIP3    H220147   3.810   1.498   5.890  1.8740  0.6181  1.5014
 1494TIP3   OH220148   3.028   1.558   1.166  0.1755  0.0705 -0.2316
 1494TIP3    H120149   3.053   1.523   1.251 -0.5416  0.0163 -0.0387
 1494TIP3    H220150   3.092   1.521   1.105  1.1585  0.7079  0.3819
 1495TIP3   OH220151   4.802   2.732   1.293 -0.0094  0.3542  0.3052
 1495TIP3    H120152   4.749   2.701   1.366 -0.7987 -0.2417 -0.4865
 1495TIP3    H220153   4.754   2.809   1.260 -0.0850  0.1566 -0.0576
 1496TIP3   OH220154   3.369   4.986   1.780 -0.1853 -1.0823 -0.1174
 1496TIP3    H120155   3.357   4.924   1.707 -2.2712 -2.4362  1.2552
 1496TIP3    H220156   3.432   4.943   1.838 -0.2527 -1.0688 -0.0340
 1497TIP3   OH220157   3.619   1.979   7.422 -0.9098  0.1543  0.0670
 1497TIP3    H120158   3.607   1.908   7.358 -0.5377 -0.9485  1.1749
 1497TIP3    H220159   3.711   1.971   7.449 -0.6021  1.6638 -0.4652
 1498TIP3   OH220160   6.040   2.190   6.789 -0.1863  0.2284  0.7379
 1498TIP3    H120161   5.992   2.120   6.745  1.1897 -0.7824  0.8035
 1498TIP3    H220162   6.025   2.174   6.882 -2.2349  1.7588  0.7533
 1499TIP3   OH220163   2.318   1.431   1.883 -0.1651  0.4261  0.0069
 1499TIP3    H120164   2.361   1.372   1.945  0.7445  0.7816 -0.2685
 1499TIP3    H220165   2.344   1.399   1.797 -0.4702  0.6388 -0.1679
 1500TIP3   OH220166   2.358   3.649   0.138 -0.7049 -0.6464 -0.1202
 1500TIP3    H120167   2.384   3.740   0.120 -0.3410 -0.7087  0.0837
 1500TIP3    H220168   2.370   3.639   0.232 -1.7306 -0.5966  0.0309
 1501TIP3   OH220169   3.758   5.840   1.797  0.1113 -0.1586  0.9403
 1501TIP3    H120170   3.822   5.865   1.863  0.0801  0.0002  0.9125
 1501TIP3    H220171   3.673   5.858   1.838  0.0993  0.5727  0.6233
 1502TIP3   OH220172   4.857   1.137   7.399  0.6541  0.5232  0.2480
 1502TIP3    H120173   4.832   1.048   7.372 -1.4485  0.5622  1.7611
 1502TIP3    H220174   4.906   1.172   7.324 -0.6768 -1.0145 -1.4487
 1503TIP3   OH220175   0.249   0.963   0.584 -0.0042  0.5048  0.6911
 1503TIP3    H120176   0.249   0.869   0.568  2.1452  0.5520  0.1418
 1503TIP3    H220177   0.341   0.985   0.598 -0.3884  2.6218  0.1779
 1504TIP3   OH220178   2.125   3.945   0.045  0.2888 -0.0497  0.5651
 1504TIP3    H120179   2.079   4.029   0.037  2.3628  1.0545 -0.6566
 1504TIP3    H220180   2.060   3.880   0.020 -1.3372  1.1758  1.3706
 1505TIP3   OH220181   0.494   6.034   5.859 -0.1662  0.0447  0.2384
 1505TIP3    H120182   0.491   5.938   5.855  1.3588  0.0017 -1.6786
 1505TIP3    H220183   0.581   6.053   5.894 -0.0560  0.7190 -0.3936
 1506TIP3   OH220184   4.551   5.399   0.702 -0.0253  0.1600  0.4920
 1506TIP3    H120185   4.526   5.362   0.787 -1.2945  0.4360  0.2617
 1506TIP3    H220186   4.584   5.324   0.652  2.4389  0.2861  1.7843
 1507TIP3   OH220187   5.821   0.633   7.114  0.1927  0.3349 -0.1228
 1507TIP3    H120188   5.820   0.707   7.054 -1.9022  2.3005  2.1224
 1507TIP3    H220189   5.908   0.596   7.104  1.0326  2.5481 -1.9786
 1508TIP3   OH220190   4.359   4.619   7.167 -0.3671 -0.7107  0.4708
 1508TIP3    H120191   4.396   4.545   7.215 -1.1854 -0.5169  1.4301
 1508TIP3    H220192   4.326   4.678   7.235  0.7681  0.8251 -0.2437
 1509TIP3   OH220193   4.092   0.217   7.275 -0.1289  0.0168  0.3646
 1509TIP3    H120194   4.040   0.271   7.215 -2.2699  0.2428  2.2556
 1509TIP3    H220195   4.152   0.279   7.316 -0.6466  0.4427  0.4990
 1510TIP3   OH220196   3.469   0.435   5.744  0.1283  0.4924 -0.0359
 1510TIP3    H120197   3.433   0.466   5.828  2.5078  0.3302  1.1326
 1510TIP3    H220198   3.532   0.368   5.769  0.8613  0.4095 -1.9823
 1511TIP3   OH220199   2.943   2.499   1.054 -0.7218  0.1472  0.0470
 1511TIP3    H120200   2.995   2.474   0.977 -0.6568  1.5311 -0.3873
 1511TIP3    H220201   2.999   2.561   1.101 -1.7236  1.2436 -0.1430
 1512TIP3   OH220202   1.182   0.565   0.690 -0.5543 -0.3419 -0.1401
 1512TIP3    H120203   1.163   0.624   0.617 -2.0819 -0.5884  0.0209
 1512TIP3    H220204   1.157   0.479   0.658  0.1992 -0.6826  0.1653
 1513TIP3   OH220205   4.242   6.308   7.229 -0.5225  0.0645  0.3163
 1513TIP3    H120206   4.321   6.328   7.179 -0.5242  0.3491  0.4278
 1513TIP3    H220207   4.198   6.392   7.239 -1.0467 -0.1591 -0.0908
 1514TIP3   OH220208   2.923   5.236   0.560  0.6247  0.2140  0.2517
 1514TIP3    H120209   2.954   5.148   0.583  1.7141  0.3881 -0.5040
 1514TIP3    H220210   2.985   5.267   0.495 -0.1211  1.3066  0.0420
 1515TIP3   OH220211   4.332   6.078   6.751 -0.5647 -0.1564  0.3718
 1515TIP3    H120212   4.389   6.021   6.803  0.8687  0.6681 -0.2161
 1515TIP3    H220213   4.290   6.019   6.688  1.2454 -0.5575 -0.5334
 1516TIP3   OH220214   3.081   0.090   0.831 -0.4903  0.2341  0.0049
 1516TIP3    H120215   3.166   0.078   0.873 -0.7977  2.0959  1.2688
 1516TIP3    H220216   3.085   0.035   0.753  2.0382  0.5920 -0.1958
 1517TIP3   OH220217   2.890   0.103   6.837 -0.1745 -0.3570  0.1031
 1517TIP3    H120218   2.931   0.178   6.879 -1.0532 -0.6126  1.4730
 1517TIP3    H220219   2.796   0.114   6.853 -0.7229  0.0641 -2.7064
 1518TIP3   OH220220   0.124   0.657   5.783 -0.3834 -0.3283 -0.3238
 1518TIP3    H120221   0.139   0.696   5.870  1.9535 -1.0337 -0.3385
 1518TIP3    H220222   0.069   0.581   5.800 -0.8028  0.1190  0.3955
 1519TIP3   OH220223   1.182   6.260   1.825 -0.5363  0.4819 -0.6510
 1519TIP3    H120224   1.263   6.311   1.831 -1.0928  1.2538  0.7756
 1519TIP3    H220225   1.138   6.294   1.747 -0.5555  1.7109 -0.1233
 1520TIP3   OH220226   1.333   1.265   0.963 -0.2093 -0.8555 -0.1463
 1520TIP3    H120227   1.353   1.333   1.027 -0.2332 -2.6800  1.9149
 1520TIP3    H220228   1.290   1.311   0.891 -0.0861  1.2984  1.0830
 1521TIP3   OH220229   3.998   3.243   6.617  0.8055  0.1451  0.2881
 1521TIP3    H120230   4.052   3.178   6.661  2.2406  0.7201 -0.5617
 1521TIP3    H220231   3.985   3.312   6.681 -0.2466 -0.6792  1.0031
 1522TIP3   OH220232   4.303   0.695   1.834 -0.2697  0.5908 -0.1663
 1522TIP3    H120233   4.365   0.768   1.838  0.7647 -0.2992  1.6495
 1522TIP3    H220234   4.227   0.725   1.883  0.3473  0.3500  1.0041
 1523TIP3   OH220235   0.351   1.514   0.978  0.2061  0.1302 -0.2241
 1523TIP3    H120236   0.294   1.456   0.927  0.7678 -0.2557 -0.4173
 1523TIP3    H220237   0.434   1.513   0.932  0.6486 -0.0258  0.5533
 1524TIP3   OH220238   4.619   6.104   6.473  0.1819  0.2378  0.0912
 1524TIP3    H120239   4.691   6.151   6.431 -1.4237  2.4031 -0.3930
 1524TIP3    H220240   4.555   6.090   6.402 -0.5599 -0.2227  0.8320
 1525TIP3   OH220241   4.837   4.631   6.201 -0.3706 -0.1259 -0.3676
 1525TIP3    H120242   4.827   4.727   6.204 -0.6418 -0.0458 -2.4230
 1525TIP3    H220243   4.913   4.617   6.145 -0.7909 -1.1163 -0.7060
 1526TIP3   OH220244   5.199   4.247   2.153 -0.7467 -0.2079  0.0542
 1526TIP3    H120245   5.155   4.196   2.220 -0.9585  0.7385  0.6525
 1526TIP3    H220246   5.238   4.321   2.200 -2.0380  1.2193 -1.0163
 1527TIP3   OH220247   3.312   2.711   6.067 -0.0436 -0.5407  0.2418
 1527TIP3    H120248   3.341   2.781   6.007  0.7555 -1.1912 -0.1560
 1527TIP3    H220249   3.329   2.630   6.018  3.4329 -1.2976  2.4090
 1528TIP3   OH220250   5.100   1.132   6.395 -0.0225 -0.5065  0.3275
 1528TIP3    H120251   5.049   1.177   6.327  0.1594 -1.7709 -0.6899
 1528TIP3    H220252   5.151   1.202   6.437  0.2115  0.2586 -1.1556
 1529TIP3   OH220253   2.318   3.719   7.353  1.0971  0.2928  0.1876
 1529TIP3    H120254   2.264   3.762   7.420  1.3319  0.2376  0.4142
 1529TIP3    H220255   2.280   3.748   7.270  0.9806  0.5931  0.3420
 1530TIP3   OH220256   6.037   5.449   6.620 -0.6359  0.1997 -0.2363
 1530TIP3    H120257   6.030   5.486   6.707  0.6245 -0.8687  0.3506
 1530TIP3    H220258   5.962   5.390   6.613  0.1038 -0.9178  0.7736
 1531TIP3   OH220259   1.399   0.439   7.343 -0.4936 -0.3893  0.2343
 1531TIP3    H120260   1.312   0.435   7.304 -0.4703 -2.0219  0.2526
 1531TIP3    H220261   1.398   0.370   7.409 -0.1594  1.5642  2.3895
 1532TIP3   OH220262   3.832   0.988   7.657 -0.3748 -0.2496 -0.4057
 1532TIP3    H120263   3.752   0.970   7.607 -1.8492  2.4634  0.7710
 1532TIP3    H220264   3.821   0.940   7.739 -0.2192 -0.8318 -0.7215
 1533TIP3   OH220265   1.881   1.902   2.221  0.0922 -0.5676 -0.4166
 1533TIP3    H120266   1.863   1.983   2.269  1.0859 -0.1803 -0.6561
 1533TIP3    H220267   1.817   1.839   2.253 -0.6741  0.3105 -0.2010
 1534TIP3   OH220268   1.912   0.328   6.407  0.0960  0.1170 -0.4814
 1534TIP3    H120269   1.970   0.395   6.371  0.8949 -0.7915 -0.9602
 1534TIP3    H220270   1.969   0.252   6.420 -1.0250 -0.8739 -1.1357
 1535TIP3   OH220271   3.633   3.909   2.249  0.3686 -0.9501  0.7933
 1535TIP3    H120272   3.720   3.920   2.211  0.2802  1.0691  1.0893
 1535TIP3    H220273   3.589   3.847   2.190  0.0430  2.3821 -2.8437
 1536TIP3   OH220274   4.370   1.098   2.378  0.1507  0.0058 -0.1973
 1536TIP3    H120275   4.364   1.005   2.357 -1.2386  0.1793 -0.6690
 1536TIP3    H220276   4.314   1.109   2.455  0.8910  0.3327  0.3096
 1537TIP3   OH220277   3.497   1.918   2.573  0.3850 -0.2028 -0.5621
 1537TIP3    H120278   3.412   1.961   2.560  0.4468 -0.8102 -3.6777
 1537TIP3    H220279   3.475   1.825   2.581  0.7006 -0.2336  0.0420
 1538TIP3   OH220280   5.156   3.832   0.920 -0.2905  0.2090 -0.1562
 1538TIP3    H120281   5.191   3.807   1.006  3.7005  1.1667 -1.2730
 1538TIP3    H220282   5.165   3.753   0.867 -0.4154  0.2911 -0.2995
 1539TIP3   OH220283   4.401   1.122   0.363 -0.2889 -0.5694  0.3162
 1539TIP3    H120284   4.311   1.125   0.330 -0.3862  0.2621  0.6352
 1539TIP3    H220285   4.441   1.202   0.331 -0.0974 -0.2211  1.3916
 1540TIP3   OH220286   4.782   4.147   0.711 -0.4712 -0.1133 -0.2134
 1540TIP3    H120287   4.824   4.110   0.789  1.9773 -1.0093 -1.8282
 1540TIP3    H220288   4.760   4.237   0.736 -0.2535 -0.5493  1.6664
 1541TIP3   OH220289   3.664   1.514   1.856 -0.1110  0.2974  0.7163
 1541TIP3    H120290   3.691   1.491   1.766 -0.6389 -2.8778  1.2359
 1541TIP3    H220291   3.731   1.473   1.911  0.5775  2.7816  1.8370
 1542TIP3   OH220292   2.128   4.583   1.619 -0.3277 -0.2453  0.1368
 1542TIP3    H120293   2.065   4.591   1.690  1.2089 -0.2470  1.5725
 1542TIP3    H220294   2.121   4.492   1.590 -1.1098 -0.1866  0.1368
 1543TIP3   OH220295   2.279   1.191   1.167 -0.2888  0.0170 -0.3438
 1543TIP3    H120296   2.334   1.199   1.089 -0.6354 -0.4744 -0.6446
 1543TIP3    H220297   2.298   1.104   1.201 -0.7337 -0.0830 -0.3410
 1544TIP3   OH220298   3.110   2.363   1.299 -0.3281 -0.1664 -0.1108
 1544TIP3    H120299   3.125   2.333   1.209  1.7476  0.3918 -0.0041
 1544TIP3    H220300   3.054   2.440   1.289 -0.4864 -0.3757 -0.9084
 1545TIP3   OH220301   0.606   4.984   2.546 -0.1911  0.0516 -0.3689
 1545TIP3    H120302   0.584   4.895   2.518  0.8710 -0.1058 -0.7429
 1545TIP3    H220303   0.691   5.002   2.505  0.5896  0.4648  1.3442
 1546TIP3   OH220304   5.464   4.561   6.411  0.0678  0.1720 -0.3595
 1546TIP3    H120305   5.435   4.473   6.434  0.9544  0.0903  0.5392
 1546TIP3    H220306   5.390   4.600   6.364 -0.2251 -1.1417 -1.0246
 1547TIP3   OH220307   3.235   4.320   6.626  0.1004 -0.2569 -0.2083
 1547TIP3    H120308   3.283   4.403   6.623 -0.0590 -0.1850 -0.9667
 1547TIP3    H220309   3.187   4.318   6.543  0.2687 -1.2046 -0.2866
 1548TIP3   OH220310   4.844   5.112   0.767 -0.7979 -0.1236  0.2280
 1548TIP3    H120311   4.875   5.031   0.808 -2.1592 -0.1629  1.2378
 1548TIP3    H220312   4.870   5.181   0.828 -1.2059  0.0100  0.2531
 1549TIP3   OH220313   2.480   2.239   6.699  0.1484  0.6789  0.0680
 1549TIP3    H120314   2.545   2.264   6.634 -1.3157  2.1622 -0.9176
 1549TIP3    H220315   2.507   2.151   6.728  1.6514  0.5857 -1.4560
 1550TIP3   OH220316   5.824   2.286   7.405 -0.2934 -0.3764 -0.8685
 1550TIP3    H120317   5.748   2.337   7.378 -0.1957 -0.5747 -1.5288
 1550TIP3    H220318   5.864   2.338   7.476  0.3087  0.9243 -2.1001
 1551TIP3   OH220319   4.160   1.755   0.720  0.5058 -0.6195 -0.7549
 1551TIP3    H120320   4.232   1.807   0.757 -1.1456  2.8255 -1.9784
 1551TIP3    H220321   4.199   1.710   0.645  1.4185  1.2421 -1.4445
 1552TIP3   OH220322   5.412   1.061   2.076  0.4966  0.3245 -0.0129
 1552TIP3    H120323   5.388   1.052   2.168  1.7552 -1.5461  0.1968
 1552TIP3    H220324   5.470   1.136   2.074  0.6728  0.2221  0.7836
 1553TIP3   OH220325   2.275   2.727   1.655 -0.0379 -0.2897 -0.3508
 1553TIP3    H120326   2.277   2.631   1.661 -1.1340 -0.2499  1.5898
 1553TIP3    H220327   2.284   2.757   1.745 -1.9025  1.3580 -0.6355
 1554TIP3   OH220328   0.480   2.289   7.257 -0.4163  0.3671  0.0532
 1554TIP3    H120329   0.436   2.219   7.208 -2.1563  0.8878  0.7767
 1554TIP3    H220330   0.424   2.365   7.243  1.1501  1.4867 -0.2602
 1555TIP3   OH220331   3.694   6.286   7.269  0.0231 -0.1237 -0.4352
 1555TIP3    H120332   3.718   6.297   7.177 -0.1331 -0.3118 -0.5001
 1555TIP3    H220333   3.746   6.352   7.316  0.3431 -0.2430 -0.6190
 1556TIP3   OH220334   1.213   3.319   1.008  0.3196  0.1613  0.4725
 1556TIP3    H120335   1.140   3.264   1.036  0.1594 -0.4158 -1.0192
 1556TIP3    H220336   1.282   3.300   1.071  0.2693 -1.7596  0.0033
 1557TIP3   OH220337   0.712   5.673   7.461  0.4958 -0.2581 -0.4894
 1557TIP3    H120338   0.797   5.702   7.429  1.0068 -1.6529 -0.4881
 1557TIP3    H220339   0.670   5.752   7.494  1.3611  0.6230 -1.4412
 1558TIP3   OH220340   6.237   4.537   6.586 -0.4494  0.6908 -0.1173
 1558TIP3    H120341   6.202   4.626   6.580 -0.2276  0.8933  1.3814
 1558TIP3    H220342   6.164   4.481   6.560 -0.2721  1.3237 -2.1475
 1559TIP3   OH220343   1.767   0.072   6.904  0.0980  0.0263 -0.2703
 1559TIP3    H120344   1.732   0.159   6.888 -1.8409 -0.6707 -0.1182
 1559TIP3    H220345   1.759   0.060   6.999  2.2385  0.4066 -0.0054
 1560TIP3   OH220346   1.667   2.689   7.688  0.5037  0.2743 -0.5022
 1560TIP3    H120347   1.734   2.627   7.658 -0.8507 -0.4703 -2.2609
 1560TIP3    H220348   1.715   2.765   7.718  2.1510  0.2332 -2.7788
 1561TIP3   OH220349   3.349   2.936   5.922 -0.1756 -0.1484 -0.3056
 1561TIP3    H120350   3.426   2.985   5.891 -0.0491 -0.9109 -1.2641
 1561TIP3    H220351   3.282   3.003   5.935  0.6377  0.5294  0.5275
 1562TIP3   OH220352   4.987   2.310   0.942  0.1514 -0.6486 -0.0692
 1562TIP3    H120353   5.002   2.274   0.855 -0.5993 -1.1594  0.0073
 1562TIP3    H220354   4.907   2.363   0.933 -0.1399 -1.0021  0.3890
 1563TIP3   OH220355   3.659   3.903   0.816  0.8464 -0.3240  0.1246
 1563TIP3    H120356   3.576   3.949   0.826  0.6579 -0.7961  0.7838
 1563TIP3    H220357   3.635   3.813   0.796  1.2137 -0.2301 -0.8285
 1564TIP3   OH220358   1.166   5.697   1.670  0.4074 -0.4269 -0.1065
 1564TIP3    H120359   1.146   5.790   1.656 -0.3684 -0.5912 -0.1018
 1564TIP3    H220360   1.106   5.651   1.611 -0.1554 -0.9718  0.8800
 1565TIP3   OH220361   4.274   0.413   7.348 -0.1071  0.2486 -0.5864
 1565TIP3    H120362   4.236   0.501   7.336  0.1793  0.2581 -1.5515
 1565TIP3    H220363   4.343   0.425   7.413  0.4945  0.9207 -1.3243
 1566TIP3   OH220364   3.300   6.198   7.640 -0.1540 -0.5704  0.2606
 1566TIP3    H120365   3.240   6.189   7.714 -0.2814 -1.0580  0.1012
 1566TIP3    H220366   3.355   6.273   7.662 -0.8679 -0.0692  0.3817
 1567TIP3   OH220367   5.107   1.250   7.257 -0.0535  0.4841 -0.1977
 1567TIP3    H120368   5.190   1.204   7.255 -0.0887  0.4225 -2.3907
 1567TIP3    H220369   5.065   1.228   7.174 -2.6800 -0.2094  1.2062
 1568TIP3   OH220370   5.693   5.389   1.988  0.3620  0.2003  0.2255
 1568TIP3    H120371   5.683   5.383   2.083 -0.9378 -0.5101  0.0620
 1568TIP3    H220372   5.640   5.464   1.963  2.0734  1.4622  0.2218
 1569TIP3   OH220373   1.837   1.836   1.409  0.4656  0.2608 -0.0221
 1569TIP3    H120374   1.756   1.863   1.365 -0.9775 -0.7244  1.8729
 1569TIP3    H220375   1.857   1.909   1.468  1.3558  0.7825 -0.9433
 1570TIP3   OH220376   6.226   0.980   7.302  0.1907 -0.4742  0.3839
 1570TIP3    H120377   6.310   0.942   7.277  0.6462  0.7495 -0.0013
 1570TIP3    H220378   6.237   1.074   7.289 -0.9327 -0.2020  1.2229
 1571TIP3   OH220379   5.672   4.208   6.814 -0.1148  0.3911 -0.4260
 1571TIP3    H120380   5.601   4.166   6.766 -0.5133  1.3033 -0.6587
 1571TIP3    H220381   5.687   4.290   6.766  0.6591  0.5002 -0.0009
 1572TIP3   OH220382   1.029   2.424   0.685 -0.2956  0.5678  0.2106
 1572TIP3    H120383   1.086   2.356   0.721 -1.0189  0.1199  0.5277
 1572TIP3    H220384   0.943   2.382   0.676 -0.7956  1.4762  0.5668
 1573TIP3   OH220385   5.471   5.543   7.093 -0.0743  0.4624  0.0839
 1573TIP3    H120386   5.420   5.544   7.174 -0.6535 -0.9838 -0.2406
 1573TIP3    H220387   5.552   5.590   7.115  0.3842 -1.0601  1.9170
 1574TIP3   OH220388   3.461   2.392   0.687 -0.3364  0.2869 -0.3429
 1574TIP3    H120389   3.507   2.470   0.718  2.1250 -0.3998 -1.9143
 1574TIP3    H220390   3.440   2.343   0.767  2.5070  0.2846  0.5168
 1575TIP3   OH220391   1.988   1.604   6.514 -0.0298 -0.0892 -0.3875
 1575TIP3    H120392   2.078   1.626   6.539 -1.0045  2.5378  1.3436
 1575TIP3    H220393   1.958   1.546   6.584  0.3229 -1.0138 -0.9970
 1576TIP3   OH220394   5.934   3.180   1.118 -0.4488  0.4593  0.2813
 1576TIP3    H120395   5.915   3.197   1.210 -0.3484 -1.1840  0.6380
 1576TIP3    H220396   5.908   3.089   1.105 -0.9178  0.8068 -1.4502
 1577TIP3   OH220397   5.989   6.117   0.274  0.8434  0.2727  0.0696
 1577TIP3    H120398   5.996   6.203   0.314  2.2196  0.8886 -1.3796
 1577TIP3    H220399   6.007   6.055   0.345 -0.5269  1.1301  1.2033
 1578TIP3   OH220400   5.138   3.053   1.509  0.3338  0.4117 -0.3478
 1578TIP3    H120401   5.107   2.967   1.483  1.6946  0.1395 -1.1948
 1578TIP3    H220402   5.118   3.109   1.434 -0.4336  0.8159  0.1482
 1579TIP3   OH220403   0.502   6.163   0.919 -0.2132  0.2483  0.3446
 1579TIP3    H120404   0.527   6.251   0.948  0.3618  0.4933 -0.8245
 1579TIP3    H220405   0.580   6.129   0.875 -0.7716 -0.4260 -0.1460
 1580TIP3   OH220406   3.730   2.184   2.513  0.3228 -0.0132  0.4421
 1580TIP3    H120407   3.807   2.189   2.456 -0.1509  0.2654 -0.1898
 1580TIP3    H220408   3.712   2.275   2.537 -0.6622  0.0876 -0.5998
 1581TIP3   OH220409   5.591   2.210   0.037  0.0289  0.0272  0.1212
 1581TIP3    H120410   5.497   2.214   0.054  0.0866  0.0393  0.4508
 1581TIP3    H220411   5.612   2.293  -0.005 -0.0710  0.1106  0.2363
 1582TIP3   OH220412   0.488   4.363   7.056  1.2474  0.4617 -0.5542
 1582TIP3    H120413   0.412   4.398   7.009 -1.2050 -1.8983  1.3057
 1582TIP3    H220414   0.519   4.435   7.110 -1.9943  0.6940  1.2647
 1583TIP3   OH220415   0.764   0.964   0.389  0.3947  0.0543 -0.4466
 1583TIP3    H120416   0.786   0.945   0.480 -0.8527 -1.5421 -0.4137
 1583TIP3    H220417   0.710   1.042   0.393  1.0759  0.5071  0.0798
 1584TIP3   OH220418   0.535   6.057   2.119  0.8695 -0.4744 -0.5527
 1584TIP3    H120419   0.496   6.011   2.193 -0.3447  0.0021 -0.8788
 1584TIP3    H220420   0.552   6.145   2.151 -0.6770  0.0639 -1.1292
 1585TIP3   OH220421   6.260   1.161   5.381  0.4175 -0.0593 -0.0718
 1585TIP3    H120422   6.320   1.095   5.346 -0.2639 -0.0592 -1.3103
 1585TIP3    H220423   6.177   1.143   5.336 -0.2822  0.4570  0.9853
 1586TIP3   OH220424   2.503   4.229   2.516  0.0393  0.3656 -0.4401
 1586TIP3    H120425   2.512   4.299   2.581  0.5038  0.7685 -0.9263
 1586TIP3    H220426   2.423   4.183   2.541 -0.2949  1.0957 -0.1325
 1587TIP3   OH220427   2.898   0.059   7.741  0.3412  0.3602  0.6979
 1587TIP3    H120428   2.969   0.066   7.678 -0.5615  1.7119 -0.2304
 1587TIP3    H220429   2.899  -0.032   7.769  1.1091 -0.1390 -0.8657
 1588TIP3   OH220430   0.090   3.344   0.451  0.8640 -0.0038  0.0258
 1588TIP3    H120431   0.098   3.437   0.473  2.5691 -0.5057  1.7501
 1588TIP3    H220432   0.071   3.301   0.535 -1.9387 -1.0615 -1.0338
 1589TIP3   OH220433   4.403   3.809   1.403  0.5012 -0.2649 -0.1343
 1589TIP3    H120434   4.449   3.879   1.450  0.8442 -0.3529 -0.3323
 1589TIP3    H220435   4.434   3.816   1.313  0.3146 -0.4864 -0.2158
 1590TIP3   OH220436   3.286   0.863   6.587 -0.0904 -0.3863  0.1877
 1590TIP3    H120437   3.232   0.785   6.571 -0.6158 -0.3943  1.7779
 1590TIP3    H220438   3.243   0.907   6.660 -0.1699  1.7773 -1.0850
 1591TIP3   OH220439   1.295   3.140   1.470 -0.7242  0.1355 -0.2634
 1591TIP3    H120440   1.253   3.088   1.538 -0.7660 -0.9617 -1.1101
 1591TIP3    H220441   1.344   3.077   1.417  0.8483  1.1976 -0.1604
 1592TIP3   OH220442   5.896   0.033   7.138  0.0735  0.9224 -0.2178
 1592TIP3    H120443   5.965  -0.029   7.116 -1.2808  0.1769 -2.7723
 1592TIP3    H220444   5.852  -0.005   7.214  0.3469 -0.3758 -0.6933
 1593TIP3   OH220445   3.123   0.087   2.151 -0.2030  0.2628  0.4046
 1593TIP3    H120446   3.217   0.071   2.149 -0.3527 -0.5485 -0.3221
 1593TIP3    H220447   3.092   0.038   2.227  0.0465  1.0795  1.0512
 1594TIP3   OH220448   6.189   1.224   2.774 -0.7100  0.3408  0.0065
 1594TIP3    H120449   6.158   1.189   2.690  0.3825 -1.4605  0.2895
 1594TIP3    H220450   6.220   1.312   2.754 -1.2114  0.2359 -1.3194
 1595TIP3   OH220451   5.074   3.182   0.380 -0.0316 -0.6886 -0.4901
 1595TIP3    H120452   5.029   3.099   0.398 -1.2728 -0.0117 -0.3788
 1595TIP3    H220453   5.162   3.170   0.415 -0.7302 -1.3418  1.1211
 1596TIP3   OH220454   3.113   6.137   1.690 -0.4341 -0.0101 -0.4845
 1596TIP3    H120455   3.027   6.177   1.704 -0.8952 -1.3465  0.8894
 1596TIP3    H220456   3.143   6.114   1.779  0.8357 -0.5706 -1.0302
 1597TIP3   OH220457   4.375   1.874   0.826  0.3698 -0.0897 -0.1451
 1597TIP3    H120458   4.424   1.920   0.893  0.4814 -1.0939  0.4843
 1597TIP3    H220459   4.390   1.925   0.746  1.1116  0.5143  0.3622
 1598TIP3   OH220460   3.717   4.971   0.821 -0.1728 -0.2040  0.2363
 1598TIP3    H120461   3.790   4.921   0.858 -1.2160  0.7833  3.9894
 1598TIP3    H220462   3.641   4.913   0.831 -0.6395  0.4575  0.5664
 1599TIP3   OH220463   0.495   6.033   7.068 -0.4919 -0.2250  0.2040
 1599TIP3    H120464   0.441   5.955   7.075  0.3809 -0.8815 -0.1359
 1599TIP3    H220465   0.583   6.003   7.091  0.3083  0.0969 -2.1785
 1600TIP3   OH220466   3.136   4.831   1.416  0.1938 -0.5368 -0.6427
 1600TIP3    H120467   3.142   4.750   1.367  1.1546 -0.7166 -0.2569
 1600TIP3    H220468   3.046   4.860   1.405  0.1256 -1.1082 -1.6475
 1601TIP3   OH220469   1.384   2.673   1.499  0.4202 -0.7771 -0.4751
 1601TIP3    H120470   1.300   2.628   1.498 -1.2700  2.0156  1.7401
 1601TIP3    H220471   1.385   2.725   1.419 -1.1349  0.9313  0.5355
 1602TIP3   OH220472   3.511   2.594   7.239  0.2004 -0.1118  0.8482
 1602TIP3    H120473   3.421   2.589   7.209 -0.1174  1.4579  1.4044
 1602TIP3    H220474   3.558   2.636   7.167  0.8328 -2.2090 -0.0318
 1603TIP3   OH220475   5.157   0.761   0.061 -0.6507 -0.1028 -0.4914
 1603TIP3    H120476   5.197   0.830   0.008 -1.5873 -0.3682 -1.5812
 1603TIP3    H220477   5.081   0.733   0.011 -2.5001  0.6601  1.6961
 1604TIP3   OH220478   5.930   0.093   2.746  0.1210 -0.1147  0.3114
 1604TIP3    H120479   5.910   0.014   2.796  1.2566 -1.0837 -0.6995
 1604TIP3    H220480   5.884   0.081   2.663  2.4143 -1.0393 -0.9131
 1605TIP3   OH220481   5.832   2.015   0.163 -0.4330 -0.0915  0.0197
 1605TIP3    H120482   5.844   1.936   0.111 -0.1493  0.1344 -0.2717
 1605TIP3    H220483   5.834   1.986   0.254 -1.4929 -0.5653 -0.1040
 1606TIP3   OH220484   0.649   1.938   0.427 -0.5324 -0.4355 -0.2814
 1606TIP3    H120485   0.708   2.007   0.456 -2.7650  1.4191  0.1882
 1606TIP3    H220486   0.616   1.969   0.342 -1.8299 -0.7197  0.0951
 1607TIP3   OH220487   0.347   4.020   1.760  0.7003 -0.5411  0.3518
 1607TIP3    H120488   0.288   4.044   1.831  1.3669 -0.8811  1.0239
 1607TIP3    H220489   0.379   4.103   1.726  1.3280 -0.3994  1.2600
 1608TIP3   OH220490   2.526   0.845   6.685 -0.8435  0.3937 -0.6914
 1608TIP3    H120491   2.443   0.828   6.640 -1.2592  2.8229 -0.9950
 1608TIP3    H220492   2.586   0.870   6.615  0.6376 -2.6806 -0.6484
 1609TIP3   OH220493   4.475   3.173   7.244 -0.6330 -0.3739  0.5664
 1609TIP3    H120494   4.540   3.161   7.175  0.0347  2.4865  0.5874
 1609TIP3    H220495   4.429   3.254   7.220 -2.9901 -1.3399  1.5170
 1610TIP3   OH220496   3.991   1.136   0.098  0.2089  0.5322 -0.4145
 1610TIP3    H120497   3.920   1.193   0.127 -1.0539 -1.0580 -0.2777
 1610TIP3    H220498   3.967   1.112   0.009  0.4272 -0.2277 -0.2737
 1611TIP3   OH220499   4.522   4.111   6.044  0.0217  0.0648  0.6696
 1611TIP3    H120500   4.437   4.078   6.014 -1.0305 -0.5567  3.9268
 1611TIP3    H220501   4.541   4.185   5.987 -1.3466 -1.3876 -1.8632
 1612TIP3   OH220502   0.904   4.748   1.933  0.1347  0.1672  0.4907
 1612TIP3    H120503   0.936   4.694   1.861 -0.1252  3.0486 -1.9394
 1612TIP3    H220504   0.978   4.754   1.993  0.5452 -1.8198  0.2663
 1613TIP3   OH220505   3.902   3.090   1.731  0.4837 -0.5228 -0.0382
 1613TIP3    H120506   3.821   3.141   1.719  0.7600  0.4102  1.7008
 1613TIP3    H220507   3.890   3.046   1.815  0.6893 -2.5876 -1.0264
 1614TIP3   OH220508   2.702   5.808   2.121 -0.1357  0.5723  0.3328
 1614TIP3    H120509   2.722   5.788   2.212 -3.0544  0.5895  1.0993
 1614TIP3    H220510   2.781   5.849   2.086  1.2800 -0.0810  2.6446
 1615TIP3   OH220511   6.211   2.712   6.870 -0.1566 -0.7238 -0.4116
 1615TIP3    H120512   6.116   2.712   6.861 -0.1343  1.1749 -1.1613
 1615TIP3    H220513   6.226   2.738   6.961 -0.3777 -0.0225 -0.5647
 1616TIP3   OH220514   1.934   6.208   0.020  0.1607  0.4312 -0.2827
 1616TIP3    H120515   1.999   6.262   0.066  0.8320 -0.1444 -0.5281
 1616TIP3    H220516   1.953   6.119   0.050  0.2529  0.1169 -1.2548
 1617TIP3   OH220517   4.103   5.883   7.015 -0.3716 -0.3929 -0.0998
 1617TIP3    H120518   4.190   5.874   6.975 -0.4257 -1.2146 -0.0549
 1617TIP3    H220519   4.115   5.947   7.085 -0.1338  0.5930 -1.0211
 1618TIP3   OH220520   2.561   1.982   7.654 -0.2332  0.6104  0.3098
 1618TIP3    H120521   2.488   2.037   7.683 -0.9186  1.0637 -2.0715
 1618TIP3    H220522   2.632   2.003   7.715 -1.4703  1.6763  1.4569
 1619TIP3   OH220523   5.787   3.839   5.770  0.2537 -0.0404  0.1566
 1619TIP3    H120524   5.846   3.890   5.714 -0.0350  0.7386  0.5407
 1619TIP3    H220525   5.724   3.904   5.803 -0.7384 -0.8340 -0.1415
 1620TIP3   OH220526   1.681   2.861   0.195  0.0790 -0.4404 -0.1502
 1620TIP3    H120527   1.617   2.895   0.134 -1.3040  1.5229  2.2474
 1620TIP3    H220528   1.736   2.936   0.218  0.3107 -1.0050  1.2776
 1621TIP3   OH220529   0.889   3.782   7.668  0.3851  0.2470 -0.1712
 1621TIP3    H120530   0.884   3.842   7.743  1.8123  0.3681 -0.1545
 1621TIP3    H220531   0.808   3.731   7.673  1.3251 -1.1638  2.6489
 1622TIP3   OH220532   0.688   2.929   5.796 -0.0231 -0.5241 -0.6117
 1622TIP3    H120533   0.610   2.902   5.748  0.0611  0.5512 -1.3897
 1622TIP3    H220534   0.717   3.008   5.752  2.1799 -1.5009 -1.0510
 1623TIP3   OH220535   5.559   3.113   2.078 -0.0862  0.0427  0.2619
 1623TIP3    H120536   5.510   3.054   2.136  0.7003  0.5797  1.5093
 1623TIP3    H220537   5.499   3.185   2.061 -0.6851 -0.5989 -0.4432
 1624TIP3   OH220538   0.186   3.354   2.427 -0.3193 -0.5562 -0.4354
 1624TIP3    H120539   0.094   3.377   2.438  0.2576  1.3480  1.2115
 1624TIP3    H220540   0.230   3.397   2.501  2.0871 -0.0537 -2.0290
 1625TIP3   OH220541   2.368   4.549   6.950 -0.1428  0.2991  0.2439
 1625TIP3    H120542   2.294   4.493   6.974 -1.5030  2.1047  0.4481
 1625TIP3    H220543   2.446   4.496   6.971 -1.3108 -0.6363  2.6191
 1626TIP3   OH220544   3.479   0.319   1.475  0.0916  0.1323 -0.0832
 1626TIP3    H120545   3.522   0.307   1.559 -1.4528 -1.0010  0.6041
 1626TIP3    H220546   3.395   0.275   1.485 -1.2537  2.2402 -1.3438
 1627TIP3   OH220547   2.997   3.424   7.524  0.9126 -0.2858 -0.0652
 1627TIP3    H120548   3.084   3.451   7.552 -0.4424  1.3443  3.1390
 1627TIP3    H220549   2.979   3.345   7.575 -1.0792  1.9689  3.1568
 1628TIP3   OH220550   1.461   5.006   1.625 -0.3874 -0.1232  0.0040
 1628TIP3    H120551   1.545   4.982   1.665 -0.9301 -0.0722  1.2287
 1628TIP3    H220552   1.451   5.099   1.646 -0.3888  0.0694 -0.8292
 1629TIP3   OH220553   1.137   4.898   0.946 -0.2560  0.2974 -0.3383
 1629TIP3    H120554   1.225   4.915   0.979 -1.0622 -0.4319  2.4187
 1629TIP3    H220555   1.151   4.855   0.861  1.9726  1.1422 -0.4632
 1630TIP3   OH220556   0.929   3.991   7.456  0.0242 -0.1560 -0.4547
 1630TIP3    H120557   0.943   4.084   7.471  3.4977 -0.4293 -1.0128
 1630TIP3    H220558   0.920   3.953   7.543 -1.1808  0.6527 -0.2170
 1631TIP3   OH220559   0.872   1.891   1.034 -0.3444  0.0750  0.0454
 1631TIP3    H120560   0.881   1.843   0.951  1.3967 -0.4772  0.5030
 1631TIP3    H220561   0.871   1.983   1.008 -2.5923 -0.1051 -0.7563
 1632TIP3   OH220562   1.949   2.385   1.874 -0.0550 -0.0739 -0.2764
 1632TIP3    H120563   1.928   2.390   1.781 -1.7899 -0.0782  0.0764
 1632TIP3    H220564   1.904   2.460   1.913  1.3335  0.4087  0.4707
 1633TIP3   OH220565   2.247   1.399   0.032 -0.2602  0.1159 -0.0775
 1633TIP3    H120566   2.275   1.429  -0.055 -0.6142  0.8444  0.0530
 1633TIP3    H220567   2.297   1.453   0.093  0.1882 -0.5816  0.1790
 1634TIP3   OH220568   2.005   3.352   1.990 -0.4467 -0.3843  0.3734
 1634TIP3    H120569   2.045   3.396   1.914  0.7565 -2.3153 -0.1917
 1634TIP3    H220570   1.963   3.422   2.039  0.1047  1.1574 -1.2470
 1635TIP3   OH220571   2.775   1.445   7.315 -0.6768  0.5114  0.3464
 1635TIP3    H120572   2.842   1.508   7.289 -1.5177  0.6025 -1.7923
 1635TIP3    H220573   2.692   1.491   7.303 -1.2258 -0.3570  0.6814
 1636TIP3   OH220574   4.638   5.819   5.927 -0.0461  0.1791  0.2483
 1636TIP3    H120575   4.559   5.852   5.884 -0.7651 -1.4462  0.2624
 1636TIP3    H220576   4.666   5.746   5.872  1.2817  0.5162  0.4342
 1637TIP3   OH220577   5.908   2.993   0.102 -0.0384 -0.5769  0.6028
 1637TIP3    H120578   5.897   3.077   0.148  0.1581  0.7240 -1.6074
 1637TIP3    H220579   5.981   2.951   0.147 -0.5450  0.1135  2.1555
 1638TIP3   OH220580   3.389   3.396   0.482  0.1666 -0.7059 -0.1185
 1638TIP3    H120581   3.453   3.382   0.413  0.9477  1.3167  0.1219
 1638TIP3    H220582   3.393   3.490   0.500 -1.3736 -0.8673  1.3702
 1639TIP3   OH220583   1.273   3.864   1.327  0.2334 -0.2226 -0.2111
 1639TIP3    H120584   1.267   3.777   1.287 -0.4887 -0.5742  0.6271
 1639TIP3    H220585   1.333   3.913   1.270  1.5414 -1.5991 -0.0910
 1640TIP3   OH220586   4.657   5.371   7.491 -0.0922  0.1981 -0.3840
 1640TIP3    H120587   4.598   5.440   7.462  0.8199  0.7784 -0.8928
 1640TIP3    H220588   4.628   5.351   7.580 -1.3393  0.1436 -0.7827
 1641TIP3   OH220589   6.300   2.773   1.228  0.3810  0.1748  0.4997
 1641TIP3    H120590   6.370   2.721   1.268 -0.3442  0.7965  2.7436
 1641TIP3    H220591   6.224   2.714   1.228  0.3672  0.1890  0.0167
 1642TIP3   OH220592   4.273   3.460   6.674  0.0824  0.3520 -0.4059
 1642TIP3    H120593   4.191   3.446   6.721  0.1065 -1.8698 -0.9392
 1642TIP3    H220594   4.341   3.433   6.736  0.4526  2.0332 -0.0243
 1643TIP3   OH220595   3.343   4.257   0.083 -0.3530  0.1896  0.3637
 1643TIP3    H120596   3.294   4.296   0.011 -0.8094 -1.8926 -0.5153
 1643TIP3    H220597   3.435   4.277   0.063 -0.6240  1.6684  0.5099
 1644TIP3   OH220598   1.186   0.717   1.209  0.2534  0.1957  0.7528
 1644TIP3    H120599   1.250   0.773   1.166 -1.0239 -0.1962 -1.8625
 1644TIP3    H220600   1.207   0.723   1.303  3.5216  0.7191  0.0847
 1645TIP3   OH220601   0.542   2.383   2.257  0.2008  0.1997  0.1542
 1645TIP3    H120602   0.580   2.465   2.224  0.2334 -0.3947 -1.3863
 1645TIP3    H220603   0.611   2.318   2.243 -0.7211 -0.5643 -1.0905
 1646TIP3   OH220604   3.610   4.234   5.625  0.0998  0.3724 -0.0079
 1646TIP3    H120605   3.679   4.221   5.690  0.9448  0.7454 -0.8197
 1646TIP3    H220606   3.651   4.213   5.541 -1.0509 -0.3681 -0.4159
 1647TIP3   OH220607   2.017   5.564   7.052 -0.1539  0.0901 -0.0826
 1647TIP3    H120608   2.046   5.640   7.002 -0.0334 -0.0428 -0.2176
 1647TIP3    H220609   1.991   5.599   7.137 -2.3530  0.6411 -0.8966
 1648TIP3   OH220610   0.894   0.811   6.581 -0.6243 -0.4537  0.7882
 1648TIP3    H120611   0.982   0.799   6.616 -0.9067 -0.7782  1.4069
 1648TIP3    H220612   0.904   0.799   6.487 -0.0672 -0.8695  0.8929
 1649TIP3   OH220613   6.208   2.269   2.425 -0.5784 -0.2222 -0.4499
 1649TIP3    H120614   6.208   2.173   2.428  0.3705 -0.2452 -0.8401
 1649TIP3    H220615   6.269   2.296   2.493 -1.6053  0.1540  0.3494
 1650TIP3   OH220616   0.283   5.321   7.054 -0.3077  0.0595  0.6237
 1650TIP3    H120617   0.356   5.282   7.102 -0.0363  0.6720  0.7173
 1650TIP3    H220618   0.233   5.367   7.121  0.0941  0.9517  0.3239
 1651TIP3   OH220619   0.982   2.973   0.767  0.0816  0.4382  0.0284
 1651TIP3    H120620   0.922   2.988   0.694  0.8172 -0.9198 -0.9038
 1651TIP3    H220621   0.977   2.879   0.783  2.6845  0.0952 -0.7620
 1652TIP3   OH220622   4.574   1.073   6.389 -0.0434 -0.5838 -0.1013
 1652TIP3    H120623   4.551   0.981   6.377  0.9193 -0.6017 -2.3428
 1652TIP3    H220624   4.524   1.119   6.321  1.3407  0.2080 -0.6225
 1653TIP3   OH220625   3.462   3.189   7.736 -0.0793  0.0815 -0.1866
 1653TIP3    H120626   3.492   3.275   7.764 -0.5640  0.8832 -1.9426
 1653TIP3    H220627   3.395   3.165   7.799  0.0594  0.9933  0.3246
 1654TIP3   OH220628   6.185   4.826   7.002 -0.7446  0.0505  0.3111
 1654TIP3    H120629   6.233   4.837   6.920 -1.1605 -0.6196 -0.0313
 1654TIP3    H220630   6.161   4.915   7.028 -0.3002  0.2963 -0.1053
 1655TIP3   OH220631   2.676   5.050   1.126 -0.0007  0.2050  0.0692
 1655TIP3    H120632   2.733   5.007   1.190  0.4887  0.8468  0.0736
 1655TIP3    H220633   2.673   4.989   1.052 -0.2506 -0.3613  0.5349
 1656TIP3   OH220634   5.740   2.387   7.114  0.6822  0.1898  0.0949
 1656TIP3    H120635   5.737   2.294   7.091 -0.3207  0.0784  0.6133
 1656TIP3    H220636   5.766   2.431   7.033 -0.2213 -0.4194 -0.5541
 1657TIP3   OH220637   1.184   0.429   2.610  0.3147  0.2797 -0.0195
 1657TIP3    H120638   1.213   0.415   2.700 -0.4284  1.1245  0.3700
 1657TIP3    H220639   1.158   0.343   2.579  0.5534 -0.0123  0.5857
 1658TIP3   OH220640   3.210   1.264   1.625  0.1926 -0.2646  0.7439
 1658TIP3    H120641   3.205   1.305   1.711  0.2088  0.0186  0.6120
 1658TIP3    H220642   3.298   1.226   1.621  0.1499 -0.3810  0.8974
 1659TIP3   OH220643   5.920   3.301   1.389  0.1690 -0.1975  0.6181
 1659TIP3    H120644   5.987   3.358   1.352 -1.5178  1.7434  0.3983
 1659TIP3    H220645   5.906   3.334   1.477 -1.0778 -0.0266  0.3728
 1660TIP3   OH220646   3.461   2.294   0.968  0.4445 -0.3974 -0.0509
 1660TIP3    H120647   3.486   2.358   1.034  0.4352 -0.6523  0.1980
 1660TIP3    H220648   3.538   2.240   0.956  0.5206 -0.2150 -0.4130
 1661TIP3   OH220649   0.248   3.871   0.727  0.0390  0.8040 -0.5666
 1661TIP3    H120650   0.246   3.940   0.660  1.1997  0.0022 -1.4686
 1661TIP3    H220651   0.287   3.912   0.803  1.8789  0.8575 -1.4890
 1662TIP3   OH220652   2.186   5.369   6.909 -0.3135  0.2135  0.4157
 1662TIP3    H120653   2.167   5.446   6.963  0.8879  1.2075 -0.5014
 1662TIP3    H220654   2.263   5.395   6.858  0.1596 -1.6430  0.1293
 1663TIP3   OH220655   3.540   2.402   2.304  0.2916 -0.4748  0.5445
 1663TIP3    H120656   3.623   2.356   2.293  1.1393  1.3081 -1.1351
 1663TIP3    H220657   3.539   2.428   2.396  1.8643 -0.0959  0.4813
 1664TIP3   OH220658   3.864   5.321   7.162 -0.4393 -0.4909 -0.2228
 1664TIP3    H120659   3.936   5.260   7.179  0.5860 -0.0650 -2.6301
 1664TIP3    H220660   3.809   5.276   7.098 -2.7314 -1.0272  1.9208
 1665TIP3   OH220661   3.043   4.889   5.600  0.5653 -0.4333  0.0772
 1665TIP3    H120662   2.995   4.819   5.644 -1.5027  0.6344 -0.3713
 1665TIP3    H220663   3.067   4.949   5.670 -1.5891  0.6101 -0.0069
 1666TIP3   OH220664   3.681   5.553   7.639  0.4139 -0.3323  0.8362
 1666TIP3    H120665   3.691   5.552   7.544  1.4029  0.2668  0.9233
 1666TIP3    H220666   3.644   5.639   7.659 -0.4084 -0.7009  0.9478
 1667TIP3   OH220667   6.050   4.612   0.950 -0.0720 -0.0622 -0.2802
 1667TIP3    H120668   6.122   4.668   0.922 -1.2411  0.9509 -1.4026
 1667TIP3    H220669   6.039   4.549   0.878 -1.0646  0.5695 -0.7065
 1668TIP3   OH220670   4.496   0.052   0.748 -0.4101 -0.4630  0.7768
 1668TIP3    H120671   4.578   0.076   0.706  0.1264  1.3654  2.7415
 1668TIP3    H220672   4.459  -0.015   0.691  1.4520  0.1173 -1.2354
 1669TIP3   OH220673   2.029   5.627   2.098  0.0907 -0.0771  0.9094
 1669TIP3    H120674   2.072   5.549   2.064 -2.9265 -1.0688 -1.0081
 1669TIP3    H220675   1.982   5.597   2.176  0.2271  0.2052  1.1014
 1670TIP3   OH220676   5.862   0.022   6.302 -0.3532 -0.4782  0.3628
 1670TIP3    H120677   5.942   0.066   6.273 -0.0549 -0.2670  1.4421
 1670TIP3    H220678   5.795   0.048   6.239  0.2934 -0.1680 -0.2030
 1671TIP3   OH220679   2.233   5.084   1.941 -0.3136  0.0738 -0.1199
 1671TIP3    H120680   2.270   5.152   1.885 -1.4491  1.2316  0.4920
 1671TIP3    H220681   2.300   5.070   2.008 -1.0361  2.4184  1.1956
 1672TIP3   OH220682   3.383   0.232   0.780  0.1185 -0.0443 -0.3871
 1672TIP3    H120683   3.389   0.328   0.776  1.6152 -0.1674 -2.7807
 1672TIP3    H220684   3.320   0.216   0.851  1.4318  2.6210  1.5842
 1673TIP3   OH220685   2.920   3.333   1.752 -0.2757 -0.2851 -0.0969
 1673TIP3    H120686   2.850   3.276   1.784 -0.2480 -0.7597 -0.8362
 1673TIP3    H220687   2.939   3.299   1.664  1.7364 -0.9514  0.5554
 1674TIP3   OH220688   0.686   5.020   7.074 -0.4020 -0.1297  0.4375
 1674TIP3    H120689   0.613   4.961   7.059 -1.0504  0.3126  1.7712
 1674TIP3    H220690   0.661   5.101   7.029 -0.2994 -0.2849  0.0968
 1675TIP3   OH220691   3.725   2.650   1.236 -0.5977 -0.2455  0.2424
 1675TIP3    H120692   3.799   2.687   1.283 -0.2778 -0.6402  0.0566
 1675TIP3    H220693   3.664   2.723   1.224  1.2649  1.0109 -2.6733
 1676TIP3   OH220694   5.841   2.651   2.386 -0.1907  0.4281  1.0234
 1676TIP3    H120695   5.937   2.654   2.382 -0.1416 -0.6803  1.1101
 1676TIP3    H220696   5.819   2.685   2.472  0.1576  0.2645  1.1793
 1677TIP3   OH220697   5.023   1.717   6.652 -0.2048  0.4937  0.1939
 1677TIP3    H120698   5.026   1.780   6.580 -1.1315  0.1242 -0.1813
 1677TIP3    H220699   5.021   1.771   6.731  0.1136  0.9135 -0.0784
 1678TIP3   OH220700   3.522   4.726   7.122  0.4243 -0.1976 -0.3950
 1678TIP3    H120701   3.561   4.812   7.140  0.9619 -0.7227  1.1507
 1678TIP3    H220702   3.596   4.673   7.091 -0.5082  0.7445 -4.9058
 1679TIP3   OH220703   4.669   1.056   1.950  0.4168 -0.0392  0.1335
 1679TIP3    H120704   4.620   1.115   2.007  3.6388  2.0212  1.0789
 1679TIP3    H220705   4.698   0.985   2.008  0.3639 -0.0913  0.0963
 1680TIP3   OH220706   3.750   4.065   7.286 -0.2343 -0.3610  0.0244
 1680TIP3    H120707   3.755   3.996   7.352 -0.7544 -0.8507 -0.4303
 1680TIP3    H220708   3.656   4.077   7.271 -0.1798  0.9781  0.6353
 1681TIP3   OH220709   4.035   2.118   7.742  0.1034 -0.1363 -0.1052
 1681TIP3    H120710   4.113   2.170   7.725  1.1108 -1.7358 -0.5856
 1681TIP3    H220711   4.064   2.049   7.802 -0.7839 -1.0623 -0.6934
 1682TIP3   OH220712   3.478   4.668   2.111 -0.0761  0.7093 -0.0617
 1682TIP3    H120713   3.477   4.711   2.197 -0.8094  0.0047  0.2978
 1682TIP3    H220714   3.448   4.579   2.128 -0.3862  0.6036 -1.0728
 1683TIP3   OH220715   1.372   2.767   1.750  0.3305  0.2556 -0.5828
 1683TIP3    H120716   1.465   2.759   1.773  0.5886 -1.1312 -1.9187
 1683TIP3    H220717   1.368   2.741   1.658 -1.4627 -0.2761 -0.3933
 1684TIP3   OH220718   2.770   4.322   0.109 -0.1347 -0.2440  0.0394
 1684TIP3    H120719   2.842   4.353   0.055 -1.9995  0.5601 -2.1660
 1684TIP3    H220720   2.730   4.251   0.058 -0.7591 -0.8339  1.3077
 1685TIP3   OH220721   1.237   5.539   0.078  0.4786 -0.3049 -0.0584
 1685TIP3    H120722   1.309   5.510   0.024  1.1030  0.4223  0.3632
 1685TIP3    H220723   1.205   5.619   0.036 -0.2431 -0.7498 -0.3759
 1686TIP3   OH220724   0.495   3.176   0.378 -0.1654  0.8006  0.3484
 1686TIP3    H120725   0.442   3.113   0.427  0.4751  0.3985  0.5301
 1686TIP3    H220726   0.516   3.245   0.441 -2.9525  2.5454 -0.4450
 1687TIP3   OH220727   1.866   5.336   7.071  0.4877 -0.3831 -0.4855
 1687TIP3    H120728   1.813   5.395   7.123  1.3142 -1.0196  1.1321
 1687TIP3    H220729   1.932   5.392   7.031 -0.8652  0.2915 -1.8868
 1688TIP3   OH220730   0.917   6.246   0.634  0.0659 -0.3449  0.3986
 1688TIP3    H120731   1.006   6.235   0.599 -0.0377 -2.0514  0.5940
 1688TIP3    H220732   0.929   6.254   0.728 -0.0216 -1.5274  0.5274
 1689TIP3   OH220733   5.513   4.144   1.838 -0.4827  0.0932 -0.2454
 1689TIP3    H120734   5.458   4.221   1.848  1.2492  1.3253  0.3052
 1689TIP3    H220735   5.481   4.101   1.759 -3.0386  0.0084  0.7381
 1690TIP3   OH220736   3.906   6.024   6.470  0.1350  0.1361 -0.2822
 1690TIP3    H120737   3.979   5.977   6.428 -1.1528 -0.6680 -1.7207
 1690TIP3    H220738   3.936   6.039   6.560  0.6267 -3.5927  0.3352
 1691TIP3   OH220739   2.629   3.377   7.544 -0.4463  0.4505 -0.2356
 1691TIP3    H120740   2.602   3.421   7.463 -1.5717 -2.4203 -1.5438
 1691TIP3    H220741   2.547   3.365   7.593 -0.2161 -0.3715 -0.0356
 1692TIP3   OH220742   4.981   5.988   6.959 -0.3151  0.4974  0.2008
 1692TIP3    H120743   4.991   6.018   6.869  0.1573  1.2466  0.4988
 1692TIP3    H220744   5.000   5.894   6.955  0.7424  0.7185 -0.2974
 1693TIP3   OH220745   5.801   3.130   6.822 -0.4827  0.0586 -0.1941
 1693TIP3    H120746   5.859   3.105   6.894 -0.6751 -0.8552 -0.3429
 1693TIP3    H220747   5.803   3.226   6.822  0.8782  0.0483 -0.0928
 1694TIP3   OH220748   2.163   6.136   7.092  0.3844  0.5356  0.5158
 1694TIP3    H120749   2.226   6.206   7.075  2.1434 -1.0181  0.4003
 1694TIP3    H220750   2.086   6.181   7.127  2.0077  2.3806  1.8729
 1695TIP3   OH220751   2.438   4.571   7.262  0.1110  0.3915  0.0299
 1695TIP3    H120752   2.385   4.503   7.221 -0.2760  0.1952  0.8276
 1695TIP3    H220753   2.520   4.528   7.286 -0.2125  0.1439  0.7157
 1696TIP3   OH220754   4.940   1.451   6.952 -0.0052  0.4054  0.0802
 1696TIP3    H120755   4.904   1.443   7.040 -0.8529  2.2317 -0.0480
 1696TIP3    H220756   4.869   1.491   6.901 -0.5577 -3.0045 -2.1464
 1697TIP3   OH220757   6.129   2.090   6.436 -0.6287  0.3189 -0.3820
 1697TIP3    H120758   6.155   2.116   6.348  0.0974  0.7487 -0.0508
 1697TIP3    H220759   6.039   2.119   6.444 -0.6961  0.2884 -0.9757
 1698TIP3   OH220760   1.912   3.846   1.100  0.4233 -0.2217 -0.2625
 1698TIP3    H120761   1.838   3.794   1.070 -1.7194  1.4516  1.7755
 1698TIP3    H220762   1.919   3.826   1.194  2.4403 -0.1486 -0.3473
 1699TIP3   OH220763   5.948   1.196   0.396 -0.1225 -0.2997 -0.3625
 1699TIP3    H120764   5.937   1.119   0.341 -0.6512 -1.3008  1.0842
 1699TIP3    H220765   5.864   1.240   0.393 -0.7460 -1.3400  1.0425
 1700TIP3   OH220766   2.288   4.306   0.007 -0.1836  0.2904 -0.0584
 1700TIP3    H120767   2.326   4.345  -0.072  0.5541 -2.2497 -1.0565
 1700TIP3    H220768   2.197   4.337   0.007  0.3111  1.8509 -0.8224
 1701TIP3   OH220769   6.277   2.240   1.765  0.9118 -0.3153  0.4287
 1701TIP3    H120770   6.214   2.187   1.715  0.9359  1.1040 -1.2425
 1701TIP3    H220771   6.283   2.198   1.850 -1.2403 -1.3172  0.1511
 1702TIP3   OH220772   0.411   4.101   0.796  0.1798  0.7107 -0.1464
 1702TIP3    H120773   0.327   4.141   0.818 -0.1452 -0.5252  1.0129
 1702TIP3    H220774   0.463   4.110   0.876  0.1238 -1.0530  0.1269
 1703TIP3   OH220775   4.555   4.802   6.709  0.0907 -0.0949  0.4322
 1703TIP3    H120776   4.528   4.886   6.745  1.7543  0.7449 -0.1677
 1703TIP3    H220777   4.500   4.738   6.753 -1.3945  1.3220  0.7123
 1704TIP3   OH220778   2.230   5.749   6.661 -0.1799 -0.0922 -0.3730
 1704TIP3    H120779   2.274   5.665   6.667 -0.8332 -0.5438 -1.5552
 1704TIP3    H220780   2.263   5.789   6.580  0.1711  0.8181  0.2028
 1705TIP3   OH220781   4.905   3.692   0.162  0.3226 -0.2635 -0.3081
 1705TIP3    H120782   4.968   3.740   0.217 -1.3377  3.3439 -1.2801
 1705TIP3    H220783   4.828   3.680   0.218 -0.0146  0.0377 -0.7065
 1706TIP3   OH220784   3.822   4.000   6.960 -0.1225 -0.2001 -0.2142
 1706TIP3    H120785   3.772   4.081   6.967  1.6150  0.8032  1.5945
 1706TIP3    H220786   3.894   4.011   7.022  0.8105 -2.6784 -0.7523
 1707TIP3   OH220787   3.014   0.919   1.929  0.3228 -0.6204  0.0518
 1707TIP3    H120788   3.039   0.970   1.852 -1.1675 -1.6927 -1.2016
 1707TIP3    H220789   3.057   0.834   1.917  1.1193 -0.3901  1.0889
 1708TIP3   OH220790   4.556   2.020   0.974 -0.4972  0.3000  0.2456
 1708TIP3    H120791   4.607   2.021   0.893 -0.0653 -1.6224  0.4509
 1708TIP3    H220792   4.621   2.025   1.044 -0.8215  1.0986  0.5130
 1709TIP3   OH220793   3.606   6.129   0.035  0.4787 -0.1745 -0.6919
 1709TIP3    H120794   3.541   6.063   0.061 -1.8015  1.8394 -0.9409
 1709TIP3    H220795   3.568   6.170  -0.043  1.9259  1.2971 -0.6577
 1710TIP3   OH220796   0.630   1.500   0.882 -0.1794  0.0484 -0.6088
 1710TIP3    H120797   0.675   1.583   0.861  0.1732  0.7081  2.2370
 1710TIP3    H220798   0.690   1.456   0.943 -1.1747 -1.4525 -0.6747
 1711TIP3   OH220799   6.200   5.242   0.623  0.0289 -0.1295 -0.3623
 1711TIP3    H120800   6.220   5.186   0.548  0.6537  0.0216 -0.3215
 1711TIP3    H220801   6.127   5.297   0.594  0.4096  0.0834 -0.9426
 1712TIP3   OH220802   0.051   2.061   7.531 -0.2616 -0.1432  0.3502
 1712TIP3    H120803   0.108   2.116   7.585 -1.1057  1.9307 -0.7543
 1712TIP3    H220804  -0.019   2.033   7.589  0.6323 -0.7989  1.1416
 1713TIP3   OH220805   0.532   3.288   7.215 -0.3072  0.0710  0.5107
 1713TIP3    H120806   0.603   3.331   7.167  0.6610  2.0986  3.4446
 1713TIP3    H220807   0.458   3.348   7.209 -1.0604 -0.9167 -0.5454
 1714TIP3   OH220808   2.005   3.695   0.497 -0.5506  0.1760 -0.3050
 1714TIP3    H120809   2.057   3.659   0.568 -0.9970  2.0469  1.0299
 1714TIP3    H220810   2.032   3.786   0.491 -3.9788  1.4034  0.8389
 1715TIP3   OH220811   0.550   0.076   6.568 -0.1432  0.2332  0.6251
 1715TIP3    H120812   0.491   0.001   6.578  0.1003  0.1275  1.3991
 1715TIP3    H220813   0.526   0.135   6.639  0.1656  0.5439  0.4737
 1716TIP3   OH220814   5.701   2.589   0.239  0.2674  0.1731  0.1219
 1716TIP3    H120815   5.747   2.620   0.162  0.3863 -1.3477 -0.4576
 1716TIP3    H220816   5.668   2.669   0.281  1.9566  1.1742 -0.3507
 1717TIP3   OH220817   0.409   4.334   1.203  0.6143  0.4794 -0.2313
 1717TIP3    H120818   0.479   4.376   1.252  0.8299  0.0399 -0.1532
 1717TIP3    H220819   0.350   4.299   1.270  0.7838  0.0877 -0.2813
 1718TIP3   OH220820   5.356   5.947   1.381  0.0990 -0.2190  0.1111
 1718TIP3    H120821   5.435   5.923   1.429  0.9721  0.0230 -1.1552
 1718TIP3    H220822   5.388   5.981   1.297 -1.3670 -0.8792 -0.7583
 1719TIP3   OH220823   1.758   1.739   2.587  0.1791  0.1510 -0.0404
 1719TIP3    H120824   1.779   1.827   2.619  0.3201  0.3139 -0.5561
 1719TIP3    H220825   1.689   1.708   2.645 -0.1304  0.7517 -0.0776
 1720TIP3   OH220826   2.241   4.708   1.226 -0.1039 -0.7079 -0.0811
 1720TIP3    H120827   2.246   4.637   1.162 -2.2050  0.1471 -1.2862
 1720TIP3    H220828   2.325   4.754   1.217 -0.3240 -0.6318 -2.2420
 1721TIP3   OH220829   3.192   3.562   6.624 -0.1787 -0.1544 -0.3278
 1721TIP3    H120830   3.198   3.615   6.544 -1.1861  1.2940  0.5038
 1721TIP3    H220831   3.166   3.624   6.692 -1.6025 -1.7397  0.6805
 1722TIP3   OH220832   3.509   3.199   6.135 -0.3108 -0.3827  0.1250
 1722TIP3    H120833   3.508   3.294   6.138  3.3980 -0.2221  0.0826
 1722TIP3    H220834   3.513   3.178   6.042 -0.5260 -0.5599  0.1544
 1723TIP3   OH220835   3.341   4.326   1.020 -0.1662  0.6638  0.2435
 1723TIP3    H120836   3.352   4.252   1.080 -0.5669 -0.4250 -0.9823
 1723TIP3    H220837   3.429   4.344   0.987 -0.1450  0.4072  0.1610
 1724TIP3   OH220838   0.627   5.275   6.951 -0.0411  0.3591  0.0233
 1724TIP3    H120839   0.588   5.285   7.038  0.9399  1.0706  0.4004
 1724TIP3    H220840   0.562   5.315   6.892 -0.8848 -0.4642  0.3654
 1725TIP3   OH220841   5.482   2.867   0.243 -0.1750  0.1041  0.1851
 1725TIP3    H120842   5.482   2.792   0.182  0.2798  0.4422 -0.2380
 1725TIP3    H220843   5.392   2.901   0.238  0.3416  1.3462 -1.8515
 1726TIP3   OH220844   1.997   3.870   6.943  0.5510 -0.0194  0.2327
 1726TIP3    H120845   2.032   3.790   6.982  0.7743 -1.1064 -2.0193
 1726TIP3    H220846   2.061   3.938   6.965  1.4750 -0.9268  0.3942
 1727TIP3   OH220847   5.120   5.154   0.005  0.0987  0.1166  0.0977
 1727TIP3    H120848   5.028   5.170  -0.017  0.0917  1.4894  1.0187
 1727TIP3    H220849   5.119   5.127   0.096  0.5561 -0.6796 -0.1207
 1728TIP3   OH220850   0.707   5.414   0.841  0.6052 -0.0501 -0.0134
 1728TIP3    H120851   0.716   5.324   0.871 -1.0877 -0.6003 -1.0036
 1728TIP3    H220852   0.743   5.414   0.752 -0.8936 -0.1979 -0.6579
 1729TIP3   OH220853   3.774   1.286   0.147 -0.2860  0.2514 -0.0337
 1729TIP3    H120854   3.691   1.299   0.100 -0.3588 -1.2329 -0.3874
 1729TIP3    H220855   3.748   1.266   0.237 -0.1506  2.9741  0.6872
 1730TIP3   OH220856   3.123   4.996   0.500  0.1034 -0.0947 -0.2984
 1730TIP3    H120857   3.073   4.933   0.553 -0.3235 -0.6835 -1.3576
 1730TIP3    H220858   3.199   5.018   0.554  0.3674 -1.6713  0.0375
 1731TIP3   OH220859   0.137   5.809   7.214 -0.0372  0.2222 -0.2143
 1731TIP3    H120860   0.108   5.751   7.285  1.5534 -1.7184 -1.0166
 1731TIP3    H220861   0.079   5.788   7.141  0.5706 -0.4847 -0.5203
 1732TIP3   OH220862   1.606   0.064   6.347  0.3016  0.1492  0.2603
 1732TIP3    H120863   1.600   0.091   6.255 -0.1097 -0.5759  0.0697
 1732TIP3    H220864   1.515   0.055   6.375  0.4086  1.2959  1.0262
 1733TIP3   OH220865   5.525   3.928   2.289 -0.4387 -0.1178  0.3810
 1733TIP3    H120866   5.537   4.020   2.266 -1.6771 -0.1058 -0.2880
 1733TIP3    H220867   5.559   3.921   2.378  3.6722  0.0506 -0.9586
 1734TIP3   OH220868   0.019   4.451   1.031  0.8920  0.1293  0.1261
 1734TIP3    H120869   0.026   4.538   1.070  1.7946  0.2893 -0.3649
 1734TIP3    H220870  -0.010   4.467   0.941 -0.6379 -0.2023  0.5356
 1735TIP3   OH220871   5.026   1.893   6.420  0.4460  0.2654 -0.2868
 1735TIP3    H120872   4.956   1.957   6.408 -0.9054 -0.6859  1.8234
 1735TIP3    H220873   5.004   1.822   6.360 -1.0605 -0.4617  1.0260
 1736TIP3   OH220874   0.665   3.287   0.890 -0.1059  0.0516  0.0354
 1736TIP3    H120875   0.760   3.273   0.896 -0.3453 -2.0255 -0.3932
 1736TIP3    H220876   0.652   3.375   0.925  1.7835 -0.2646  1.7273
 1737TIP3   OH220877   3.072   5.087   1.202 -0.2993  0.5820  0.3744
 1737TIP3    H120878   3.097   5.014   1.146 -0.5279 -0.3005  1.3726
 1737TIP3    H220879   3.014   5.048   1.268  0.0351  1.5439  1.2796
 1738TIP3   OH220880   3.214   1.051   6.851 -0.1299  0.4379 -0.1028
 1738TIP3    H120881   3.137   1.102   6.825  0.1009  0.6122 -0.4459
 1738TIP3    H220882   3.199   1.030   6.943 -1.6889 -1.4753 -0.7298
 1739TIP3   OH220883   0.352   1.912   7.604 -0.3526  0.1387  0.0274
 1739TIP3    H120884   0.284   1.977   7.624  0.4725  1.3301 -0.9409
 1739TIP3    H220885   0.315   1.859   7.534  0.0352  1.3726 -1.1493
 1740TIP3   OH220886   2.526   5.977   1.933  0.3506  0.1251 -0.0832
 1740TIP3    H120887   2.567   5.903   1.978  0.4113 -0.4839 -1.1063
 1740TIP3    H220888   2.584   6.052   1.951  1.9216 -0.6988 -1.4291
 1741TIP3   OH220889   6.052   3.616   0.384  0.2605  0.6241  0.2679
 1741TIP3    H120890   6.118   3.550   0.405 -0.8751 -0.2646  1.2236
 1741TIP3    H220891   6.071   3.641   0.293  2.0837  0.6503  0.6155
 1742TIP3   OH220892   2.954   5.936   6.934 -0.1698  0.3111 -0.1513
 1742TIP3    H120893   3.045   5.912   6.948 -0.3848  0.2190  1.2054
 1742TIP3    H220894   2.906   5.891   7.003 -1.5869 -1.5556 -2.1924
 1743TIP3   OH220895   0.776   6.300   6.828  0.1295  0.1481  0.7338
 1743TIP3    H120896   0.690   6.320   6.864 -1.3736 -2.5861 -1.0155
 1743TIP3    H220897   0.795   6.211   6.858  0.7433 -0.5822 -1.5940
 1744TIP3   OH220898   2.661   3.726   7.148 -0.2537  0.6029 -0.2396
 1744TIP3    H120899   2.751   3.732   7.115  0.1289 -0.4178  0.5629
 1744TIP3    H220900   2.623   3.652   7.099 -0.1129 -0.0386  0.5927
 1745TIP3   OH220901   5.020   6.268   7.287  0.1020  0.0867 -0.0193
 1745TIP3    H120902   4.934   6.290   7.325  0.8050  0.0028  1.6922
 1745TIP3    H220903   4.999   6.227   7.203 -1.4735  1.4295 -0.3342
 1746TIP3   OH220904   3.213   4.007   6.473 -0.2763  0.0099 -0.6721
 1746TIP3    H120905   3.157   4.073   6.433 -0.9407 -0.4864 -0.5589
 1746TIP3    H220906   3.215   4.030   6.566  2.1716  1.8423 -1.0692
 1747TIP3   OH220907   3.607   5.591   2.495 -0.1963 -0.1010 -0.4873
 1747TIP3    H120908   3.581   5.565   2.407 -2.4765 -0.0017  0.0829
 1747TIP3    H220909   3.680   5.534   2.518  0.7345  0.1773 -2.5751
 1748TIP3   OH220910   0.145   5.015   2.517  0.2695 -0.1931 -0.2697
 1748TIP3    H120911   0.061   5.058   2.504  0.1365 -0.3266  0.1287
 1748TIP3    H220912   0.159   5.018   2.612  0.6632 -0.2633 -0.3258
 1749TIP3   OH220913   2.518   1.540   7.379  0.2356  0.2259 -0.1355
 1749TIP3    H120914   2.498   1.625   7.417  0.4859  0.1063  0.2739
 1749TIP3    H220915   2.549   1.487   7.453  0.8268  0.0213 -0.5236
 1750TIP3   OH220916   2.928   2.256   2.084 -0.3996 -0.3958  0.0359
 1750TIP3    H120917   2.843   2.274   2.124 -0.0627 -1.2548  1.2130
 1750TIP3    H220918   2.914   2.268   1.990 -1.0673  2.3276  0.4102
 1751TIP3   OH220919   3.404   2.288   6.728  0.3565 -0.4536  0.1743
 1751TIP3    H120920   3.396   2.369   6.779  0.0596 -1.0379  1.0799
 1751TIP3    H220921   3.346   2.301   6.653  0.3154  0.1755  0.3100
 1752TIP3   OH220922   5.628   0.522   0.944  0.4941 -0.1436  0.6608
 1752TIP3    H120923   5.581   0.557   1.021 -0.9313  3.5223 -1.6008
 1752TIP3    H220924   5.559   0.487   0.888  1.0667  0.5087 -0.4711
 1753TIP3   OH220925   5.948   3.297   1.697  0.1195  0.4959  0.2734
 1753TIP3    H120926   5.890   3.250   1.756 -0.0457 -0.3157 -0.5164
 1753TIP3    H220927   6.035   3.286   1.736  0.0279 -0.1311  0.3160
 1754TIP3   OH220928   1.058   4.963   2.190 -0.4498  0.3179  1.0478
 1754TIP3    H120929   1.103   5.044   2.165 -1.1172  0.3834 -0.0053
 1754TIP3    H220930   1.081   4.901   2.122  1.8702 -1.1243  2.9911
 1755TIP3   OH220931   5.912   0.628   0.370  0.2239 -0.6489 -0.3393
 1755TIP3    H120932   5.846   0.612   0.303  1.5495  0.8658 -2.1379
 1755TIP3    H220933   5.988   0.578   0.341  0.6147 -0.4895  0.3967
 1756TIP3   OH220934   0.846   3.910   0.134 -0.7161 -0.2907 -0.4979
 1756TIP3    H120935   0.881   3.996   0.109 -0.4327 -0.4925 -0.7923
 1756TIP3    H220936   0.767   3.931   0.184 -1.0734  0.1252 -1.2156
 1757TIP3   OH220937   2.942   1.786   0.697  0.3950  0.3759 -0.7373
 1757TIP3    H120938   2.863   1.839   0.690  1.0658  1.4054 -0.7147
 1757TIP3    H220939   2.983   1.814   0.779 -0.3088 -1.7156  0.4147
 1758TIP3   OH220940   1.191   3.763   0.250 -0.2221  0.0725  0.1669
 1758TIP3    H120941   1.168   3.718   0.331  0.6542  1.4516  1.2344
 1758TIP3    H220942   1.123   3.738   0.188  0.7320 -3.5335  0.3344
 1759TIP3   OH220943   3.184   3.390   2.023 -0.4982  0.6753 -0.9573
 1759TIP3    H120944   3.145   3.403   2.109 -1.7619  0.6588 -1.5093
 1759TIP3    H220945   3.156   3.466   1.972 -0.3873  0.3153 -1.5663
 1760TIP3   OH220946   2.743   6.161   1.415  0.2042  0.4232 -0.7291
 1760TIP3    H120947   2.775   6.214   1.488  0.0540  0.6296 -0.8129
 1760TIP3    H220948   2.794   6.190   1.340 -0.4011  0.9848 -0.9311
 1761TIP3   OH220949   1.553   3.253   1.520 -0.4319 -0.0983 -0.2674
 1761TIP3    H120950   1.489   3.196   1.477 -0.3083 -0.2212 -0.2881
 1761TIP3    H220951   1.631   3.247   1.466  0.8769 -2.8656  1.6531
 1762TIP3   OH220952   6.165   2.533   7.263 -0.1522  0.0906 -0.1487
 1762TIP3    H120953   6.113   2.608   7.291 -1.9943 -1.5757  1.1521
 1762TIP3    H220954   6.243   2.536   7.319 -0.1958  1.0167 -0.1226
 1763TIP3   OH220955   3.308   3.471   0.769 -0.1192 -0.1467 -0.2724
 1763TIP3    H120956   3.301   3.445   0.677 -0.8562 -0.2714 -0.1851
 1763TIP3    H220957   3.352   3.556   0.766 -0.2645 -0.0826 -0.7548
 1764TIP3   OH220958   4.510   6.207   1.518  0.0975  0.4466  0.0344
 1764TIP3    H120959   4.476   6.293   1.494 -1.4139  0.2643  1.3692
 1764TIP3    H220960   4.503   6.155   1.438 -2.0838  0.6630  0.0133
 1765TIP3   OH220961   6.285   4.753   0.053  0.3154 -0.2369  0.1590
 1765TIP3    H120962   6.245   4.702  -0.018 -0.4078  0.5905 -0.0505
 1765TIP3    H220963   6.361   4.700   0.081  0.0304 -1.0504 -0.5490
 1766TIP3   OH220964   0.368   2.460   0.158 -0.4886 -0.3851  0.5176
 1766TIP3    H120965   0.296   2.432   0.215 -0.2717  0.7174  1.3604
 1766TIP3    H220966   0.401   2.540   0.198  0.9032 -0.6043 -0.1253
 1767TIP3   OH220967   6.251   6.173   6.150  0.1050  0.1173  0.1907
 1767TIP3    H120968   6.285   6.239   6.089  0.6354 -0.2074  0.1284
 1767TIP3    H220969   6.156   6.177   6.139  0.1670  0.4633 -0.2420
 1768TIP3   OH220970   4.844   2.600   2.007 -0.5880 -0.0879 -0.1106
 1768TIP3    H120971   4.819   2.574   2.096 -2.5154  0.3387 -0.4757
 1768TIP3    H220972   4.798   2.683   1.993  0.1959  0.1687 -1.2890
 1769TIP3   OH220973   3.220   1.876   2.173  0.3355  0.3852 -0.4132
 1769TIP3    H120974   3.294   1.826   2.209  0.3106  0.8960  0.3869
 1769TIP3    H220975   3.205   1.945   2.238  0.4601  1.5115 -1.5396
 1770TIP3   OH220976   3.301   2.320   0.461 -0.0165  0.3231 -0.0536
 1770TIP3    H120977   3.314   2.325   0.556  1.7139 -0.6189 -0.1868
 1770TIP3    H220978   3.341   2.236   0.437 -0.6278  0.4539 -1.5900
 1771TIP3   OH220979   4.476   5.039   5.917 -0.1416 -0.4499 -0.0436
 1771TIP3    H120980   4.385   5.011   5.926 -1.0524  1.1915 -3.0014
 1771TIP3    H220981   4.479   5.124   5.960 -0.1222 -0.2846 -0.3732
 1772TIP3   OH220982   3.026   1.159   0.368  0.0127 -0.0793  0.6850
 1772TIP3    H120983   2.969   1.232   0.392  0.7766  0.3800  1.1229
 1772TIP3    H220984   2.972   1.105   0.310 -0.9217  0.2531  1.2271
 1773TIP3   OH220985   4.232   5.542   7.120  0.1091 -0.5034 -0.2657
 1773TIP3    H120986   4.251   5.481   7.191  0.5081 -1.3089 -1.0569
 1773TIP3    H220987   4.259   5.628   7.155 -0.1792 -0.8082  0.7350
 1774TIP3   OH220988   2.000   1.934   0.248  0.2206  0.4174 -0.6667
 1774TIP3    H120989   2.001   1.972   0.160 -0.9456  0.6351 -0.5998
 1774TIP3    H220990   2.005   1.840   0.233  1.0086  0.4872 -0.9154
 1775TIP3   OH220991   0.541   2.253   1.059 -0.4271  0.4900  0.6306
 1775TIP3    H120992   0.524   2.218   0.971  2.5994  0.4642 -0.0532
 1775TIP3    H220993   0.533   2.177   1.117  0.3852 -0.1275 -0.0487
 1776TIP3   OH220994   0.738   4.867   0.031 -0.5314  0.4726  0.6772
 1776TIP3    H120995   0.764   4.783   0.068 -1.1762 -0.5095 -0.9684
 1776TIP3    H220996   0.667   4.846  -0.030  1.0668  1.7841 -1.8237
 1777TIP3   OH220997   4.538   5.600   7.383  0.1686 -0.0362  0.6509
 1777TIP3    H120998   4.446   5.599   7.357  0.2786  2.5326 -0.1821
 1777TIP3    H220999   4.539   5.649   7.466  0.7474 -0.4882  0.9221
 1778TIP3   OH221000   3.253   3.497   7.593  0.5166  0.0929 -0.7369
 1778TIP3    H121001   3.349   3.497   7.598  0.5194 -2.0779  3.4499
 1778TIP3    H221002   3.225   3.531   7.678 -2.5064  0.4453 -1.7530
 1779TIP3   OH221003   4.032   5.353   1.000  0.0950 -0.0598  0.2601
 1779TIP3    H121004   4.036   5.386   0.910  1.2184 -0.7186  0.0449
 1779TIP3    H221005   4.123   5.342   1.026 -0.1592  1.6971  2.1195
 1780TIP3   OH221006   3.675   3.780   5.672  0.3315 -0.1968  0.9647
 1780TIP3    H121007   3.639   3.695   5.699  1.6944 -1.1931 -0.1566
 1780TIP3    H221008   3.769   3.772   5.690  0.5151  0.9921  0.6013
 1781TIP3   OH221009   5.419   1.839   0.947 -0.5351 -0.1363 -0.1519
 1781TIP3    H121010   5.354   1.824   1.016 -0.1625 -1.4152 -0.0589
 1781TIP3    H221011   5.388   1.917   0.901 -2.0104 -0.5963  0.0339
 1782TIP3   OH221012   3.810   3.044   2.241 -0.1511  0.1610  0.2955
 1782TIP3    H121013   3.742   3.084   2.295 -0.1046  1.6846 -0.7101
 1782TIP3    H221014   3.886   3.038   2.298 -1.1489 -1.7960  1.5153
 1783TIP3   OH221015   3.385   0.574   2.247  0.5729  0.0040  0.6870
 1783TIP3    H121016   3.473   0.564   2.209  0.7303 -0.2409  1.1112
 1783TIP3    H221017   3.327   0.528   2.186  0.9098 -0.9654  1.0864
 1784TIP3   OH221018   5.555   4.816   0.460 -0.0277 -0.1704  0.3245
 1784TIP3    H121019   5.568   4.826   0.554 -0.4574  1.2356  0.2496
 1784TIP3    H221020   5.498   4.740   0.451  0.6759 -0.8143  1.1386
 1785TIP3   OH221021   2.755   5.479   1.410  0.7047 -0.4149  0.3771
 1785TIP3    H121022   2.840   5.453   1.373  0.4356 -0.3647 -0.2978
 1785TIP3    H221023   2.725   5.548   1.351  0.3510 -0.2034  0.8109
 1786TIP3   OH221024   5.430   4.427   7.611  0.2931 -0.1990 -0.3833
 1786TIP3    H121025   5.455   4.510   7.653 -0.1989 -0.1967 -0.0930
 1786TIP3    H221026   5.386   4.377   7.680 -0.9393 -0.0053 -1.0006
 1787TIP3   OH221027   2.671   0.629   2.056 -0.1865 -0.1236  0.2160
 1787TIP3    H121028   2.629   0.606   2.139 -1.1091  1.2208  0.1592
 1787TIP3    H221029   2.614   0.591   1.989 -0.0707 -0.2272  0.1759
 1788TIP3   OH221030   1.133   3.645   7.694 -0.3069 -0.4286 -0.2903
 1788TIP3    H121031   1.047   3.687   7.690 -1.2827 -2.1514  1.0926
 1788TIP3    H221032   1.149   3.612   7.606  0.1287  2.0402 -1.2023
 1789TIP3   OH221033   1.466   5.297   1.700 -0.0279 -0.0316 -0.5293
 1789TIP3    H121034   1.389   5.335   1.742  0.2949 -0.9610  0.9691
 1789TIP3    H221035   1.533   5.365   1.707 -0.0685 -0.0606  0.1906
 1790TIP3   OH221036   0.630   3.333   7.517 -0.0401  0.4571 -0.6096
 1790TIP3    H121037   0.684   3.352   7.594  0.8846 -0.5932 -0.9693
 1790TIP3    H221038   0.693   3.305   7.450 -0.6360  2.7608 -2.2558
 1791TIP3   OH221039   2.554   5.077   2.780  0.1568 -0.3540 -0.4910
 1791TIP3    H121040   2.607   5.055   2.703  1.1025 -0.2470  0.1129
 1791TIP3    H221041   2.613   5.129   2.835 -0.6137 -0.1491  0.1564
 1792TIP3   OH221042   0.958   6.138   2.113  0.6711  0.5974 -0.0501
 1792TIP3    H121043   1.040   6.146   2.162  0.1569 -0.9165  1.1145
 1792TIP3    H221044   0.890   6.162   2.176  0.1605  1.4839 -0.8997
 1793TIP3   OH221045   6.097   5.684   0.901 -0.3149 -0.3481  0.0490
 1793TIP3    H121046   6.088   5.642   0.987 -1.5092  1.2146  0.7484
 1793TIP3    H221047   6.144   5.765   0.918 -0.2550 -0.1853 -0.8328
 1794TIP3   OH221048   3.070   1.056   6.412  0.0789 -0.0280 -0.1242
 1794TIP3    H121049   3.000   1.001   6.377  0.1784  0.0660 -0.4705
 1794TIP3    H221050   3.136   1.059   6.343  1.0382 -1.1878  0.6825
 1795TIP3   OH221051   6.136   5.149   7.039 -0.6101 -0.8428  0.2276
 1795TIP3    H121052   6.201   5.142   6.969  0.7350 -0.2096  1.3651
 1795TIP3    H221053   6.067   5.203   7.002  0.8646  0.9289 -0.0948
 1796TIP3   OH221054   3.093   0.343   1.779 -0.5743  0.0360  0.0846
 1796TIP3    H121055   3.151   0.271   1.802 -0.5042  0.1449  0.2464
 1796TIP3    H221056   3.009   0.320   1.820 -0.9278 -0.6084 -0.9652
 1797TIP3   OH221057   2.562   0.045   0.998 -0.3016 -0.3077  0.3532
 1797TIP3    H121058   2.538   0.024   0.907  1.9094  0.1825 -0.4055
 1797TIP3    H221059   2.655   0.025   1.003  0.1914  2.0024  1.7882
 1798TIP3   OH221060   0.791   0.205   1.126  0.1951  0.0152  0.3345
 1798TIP3    H121061   0.876   0.247   1.129  0.1339  0.1675 -0.0529
 1798TIP3    H221062   0.734   0.261   1.179  0.1002  0.4584 -0.2245
 1799TIP3   OH221063   3.189   5.645   0.406 -0.4795 -0.5140 -0.1006
 1799TIP3    H121064   3.163   5.681   0.491 -1.3791  1.7023 -1.2352
 1799TIP3    H221065   3.147   5.559   0.402 -0.7176 -0.4968  1.5262
 1800TIP3   OH221066   2.267   5.519   1.580 -0.6083  0.0605 -0.0615
 1800TIP3    H121067   2.291   5.489   1.493  0.3945 -0.7784  0.4831
 1800TIP3    H221068   2.345   5.564   1.613 -0.1074 -1.7151  1.3047
 1801TIP3   OH221069   5.768   4.694   6.976  0.7154  0.0954 -0.4346
 1801TIP3    H121070   5.799   4.715   6.888  1.2664 -0.5465 -0.4051
 1801TIP3    H221071   5.678   4.664   6.964  1.1414 -1.0445 -0.9290
 1802TIP3   OH221072   1.152   2.059   1.481 -0.1237 -0.1011 -0.3711
 1802TIP3    H121073   1.144   2.000   1.406 -0.2242 -0.6096  0.0318
 1802TIP3    H221074   1.080   2.033   1.538  0.9892 -0.9218  0.7136
 1803TIP3   OH221075   3.333   3.484   6.921 -0.0852  0.1720  0.0959
 1803TIP3    H121076   3.352   3.425   6.848  1.0598 -0.2542  0.7237
 1803TIP3    H221077   3.312   3.426   6.994  2.6583  0.4295  1.1743
 1804TIP3   OH221078   1.507   5.386   7.396 -0.1598 -0.2176  0.2628
 1804TIP3    H121079   1.453   5.459   7.426  0.3034  0.1371  0.2474
 1804TIP3    H221080   1.495   5.318   7.463 -2.2285 -0.9472 -0.7620
 1805TIP3   OH221081   0.985   1.155   0.292  0.0497  0.1067 -1.2183
 1805TIP3    H121082   0.910   1.105   0.324 -1.8957  2.5646 -1.6208
 1805TIP3    H221083   1.026   1.190   0.372 -1.5673  1.8239 -1.0796
 1806TIP3   OH221084   2.127   3.399   6.846 -0.4096  0.2353 -0.6398
 1806TIP3    H121085   2.180   3.336   6.796  0.1969  0.6608 -0.5366
 1806TIP3    H221086   2.122   3.476   6.790 -0.2744  0.4767 -0.3250
 1807TIP3   OH221087   3.759   3.013   6.966  0.0038 -0.6153 -0.0065
 1807TIP3    H121088   3.783   2.963   7.044 -0.5629  0.5108  0.9054
 1807TIP3    H221089   3.671   2.984   6.945 -0.3432  0.0072  0.5502
 1808TIP3   OH221090   0.046   5.323   0.817 -0.2503 -0.4125 -0.4387
 1808TIP3    H121091   0.069   5.414   0.798 -0.0966 -0.3670 -0.0505
 1808TIP3    H221092  -0.016   5.299   0.749 -0.9727  0.2603 -0.0347
 1809TIP3   OH221093   2.859   1.374   0.403 -0.5934  0.1188  0.3608
 1809TIP3    H121094   2.805   1.428   0.461 -1.5841  0.4577 -0.8263
 1809TIP3    H221095   2.911   1.438   0.354  0.4461 -0.1782  1.0532
 1810TIP3   OH221096   3.956   2.623   1.092 -0.3467 -0.3297 -0.4557
 1810TIP3    H121097   3.946   2.535   1.128  1.1967  0.1858  1.4033
 1810TIP3    H221098   3.942   2.681   1.167  1.7547  0.8634 -0.9178
 1811TIP3   OH221099   2.476   3.554   5.986 -0.1535  0.3423 -0.2489
 1811TIP3    H121100   2.406   3.498   6.020 -0.5361  0.7144 -0.4066
 1811TIP3    H221101   2.522   3.585   6.064  0.1025 -0.2353 -0.1634
 1812TIP3   OH221102   5.361   3.185   2.348  0.1396 -0.1299  0.2132
 1812TIP3    H121103   5.355   3.117   2.282 -1.9233 -0.6273  0.8355
 1812TIP3    H221104   5.440   3.164   2.398 -0.7399 -2.4450  0.7480
 1813TIP3   OH221105   1.773   6.118   5.930  0.4960  0.6927  0.2796
 1813TIP3    H121106   1.816   6.179   5.990  2.0177  0.5830 -0.6478
 1813TIP3    H221107   1.794   6.150   5.843  1.0212 -0.9117 -0.2248
 1814TIP3   OH221108   1.742   5.202   0.704  0.3558 -0.0360  0.4648
 1814TIP3    H121109   1.802   5.182   0.633  1.6965 -2.8153  2.1752
 1814TIP3    H221110   1.777   5.281   0.744  2.2891 -0.9621  0.7126
 1815TIP3   OH221111   5.665   5.031   1.513 -0.3536 -0.3132  0.2626
 1815TIP3    H121112   5.590   5.090   1.514 -1.6143 -1.8353 -0.3952
 1815TIP3    H221113   5.725   5.070   1.450 -1.0625  0.3935  0.0142
 1816TIP3   OH221114   5.742   1.056   1.445  0.1010 -0.5537 -0.5343
 1816TIP3    H121115   5.647   1.043   1.443  0.1323 -1.3184  1.0779
 1816TIP3    H221116   5.753   1.141   1.487  0.1309  0.0726 -1.7630
 1817TIP3   OH221117   6.251   0.431   0.719 -0.1433  0.0403  0.3273
 1817TIP3    H121118   6.285   0.452   0.806  0.1067 -2.0989  0.8085
 1817TIP3    H221119   6.324   0.388   0.675 -0.9508 -0.9298 -0.1006
 1818TIP3   OH221120   5.579   3.658   0.140 -0.3510 -0.6331  0.2813
 1818TIP3    H121121   5.630   3.646   0.220 -0.2749  0.2959  0.3829
 1818TIP3    H221122   5.490   3.632   0.164 -0.2140 -0.8847  0.5133
 1819TIP3   OH221123   0.363   0.516   2.359  0.1319  0.6627 -0.3530
 1819TIP3    H121124   0.438   0.570   2.336  0.3829  0.3554 -0.2587
 1819TIP3    H221125   0.400   0.430   2.381 -0.1360  0.8375  0.8425
 1820TIP3   OH221126   1.608   4.108   0.158 -0.0982  0.2988  0.9106
 1820TIP3    H121127   1.637   4.036   0.103 -0.1220  1.4805 -0.7350
 1820TIP3    H221128   1.518   4.086   0.182 -0.7340  0.5769 -1.0746
 1821TIP3   OH221129   6.236   4.331   2.486  0.7028 -0.0243 -0.3622
 1821TIP3    H121130   6.329   4.311   2.485  0.8772  0.7622 -0.8045
 1821TIP3    H221131   6.214   4.342   2.579  1.0373 -0.2515 -0.2551
 1822TIP3   OH221132   3.464   1.083   1.257  0.4084 -0.6411  0.3649
 1822TIP3    H121133   3.382   1.127   1.234 -0.2399 -2.0887 -0.1719
 1822TIP3    H221134   3.492   1.039   1.177 -0.4542 -3.5050  1.4900
 1823TIP3   OH221135   1.222   3.987   2.081 -0.0992 -0.0570  0.1944
 1823TIP3    H121136   1.268   4.067   2.054 -1.0308  0.2142 -0.6424
 1823TIP3    H221137   1.184   4.009   2.166 -1.8552  1.0391 -0.8217
 1824TIP3   OH221138   5.930   3.605   5.824  0.0288  0.0814  0.4641
 1824TIP3    H121139   5.874   3.531   5.801  0.9902 -0.7014  0.5839
 1824TIP3    H221140   5.882   3.682   5.792 -1.0735 -0.5678  0.5060
 1825TIP3   OH221141   6.005   0.511   2.019 -0.2169  0.2154  0.4026
 1825TIP3    H121142   5.999   0.451   1.945 -1.2006  0.2895  0.4136
 1825TIP3    H221143   6.021   0.597   1.980  0.3927  0.0860  0.3480
 1826TIP3   OH221144   4.744   0.594   6.702  0.1483 -0.1027  0.3698
 1826TIP3    H121145   4.768   0.574   6.611 -0.5318  0.2328  0.1066
 1826TIP3    H221146   4.719   0.510   6.740 -0.4673 -0.1076 -0.0374
 1827TIP3   OH221147   2.963   1.270   2.262 -0.3623  0.3923  0.4161
 1827TIP3    H121148   3.023   1.339   2.233  1.8406 -1.3682  0.5965
 1827TIP3    H221149   2.909   1.313   2.329  0.5376  2.0825  0.1122
 1828TIP3   OH221150   1.281   0.999   6.622 -0.0987 -0.2774 -0.5665
 1828TIP3    H121151   1.356   0.983   6.679 -1.1648 -2.4265  0.3536
 1828TIP3    H221152   1.262   1.092   6.634  0.4354 -0.3898  1.7535
 1829TIP3   OH221153   3.548   0.440   7.697  0.0715  0.4893 -0.0565
 1829TIP3    H121154   3.573   0.467   7.786  0.1764  1.4782 -0.3773
 1829TIP3    H221155   3.604   0.364   7.679 -0.2580  0.0108  0.8827
 1830TIP3   OH221156   5.450   5.049   1.243 -0.3637 -0.1808  0.4461
 1830TIP3    H121157   5.414   5.073   1.158 -0.2816  1.1808  0.7675
 1830TIP3    H221158   5.425   5.122   1.301 -0.5169 -1.1229  1.6120
 1831TIP3   OH221159   6.050   6.110   2.239 -0.1605 -0.4708  0.6467
 1831TIP3    H121160   6.030   6.066   2.322 -1.5252 -0.0403  0.5803
 1831TIP3    H221161   6.027   6.202   2.255 -0.7201 -0.4352 -0.2806
 1832TIP3   OH221162   3.511   3.607   6.475  0.1928 -0.1084  0.0536
 1832TIP3    H121163   3.520   3.698   6.449  1.3215 -0.1193  0.3788
 1832TIP3    H221164   3.534   3.605   6.568  1.6398 -0.9424 -0.2907
 1833TIP3   OH221165   5.353   4.626   0.368  0.1752  0.1927 -0.2502
 1833TIP3    H121166   5.282   4.657   0.312  0.0494 -0.7770 -0.6448
 1833TIP3    H221167   5.405   4.569   0.312  0.5121 -0.1428  0.3899
 1834TIP3   OH221168   1.777   3.376   6.365  0.3388  0.0718  0.4321
 1834TIP3    H121169   1.800   3.377   6.272 -1.5173  1.7901 -0.0752
 1834TIP3    H221170   1.685   3.348   6.367 -0.5278  2.6350  1.4293
 1835TIP3   OH221171   0.771   0.510   0.896 -0.2351  0.3766 -0.0446
 1835TIP3    H121172   0.762   0.532   0.804 -0.2954  0.4034 -0.0323
 1835TIP3    H221173   0.859   0.540   0.920  0.2016 -0.6060 -0.3686
 1836TIP3   OH221174   3.778   3.263   6.203 -0.6340  0.0079 -0.3659
 1836TIP3    H121175   3.753   3.277   6.295 -0.9585 -2.3535 -0.0387
 1836TIP3    H221176   3.700   3.225   6.162 -0.3275  0.5724 -1.5169
 1837TIP3   OH221177   1.255   4.330   1.079  0.7577  0.3889  0.1115
 1837TIP3    H121178   1.171   4.366   1.108  0.0883 -0.5428 -0.5898
 1837TIP3    H221179   1.319   4.366   1.140 -0.1980  0.8525  0.8708
 1838TIP3   OH221180   5.940   5.098   1.193 -0.1086  0.4724 -0.4249
 1838TIP3    H121181   5.971   5.007   1.203  0.1933  0.6257  0.0677
 1838TIP3    H221182   5.945   5.115   1.099  0.6761  0.2720 -0.4238
 1839TIP3   OH221183   3.715   5.426   5.859  0.1494 -0.0215 -0.1878
 1839TIP3    H121184   3.734   5.338   5.890 -1.3208 -0.5048 -0.5794
 1839TIP3    H221185   3.637   5.452   5.907  0.1969  0.8093 -0.5431
 1840TIP3   OH221186   4.919   5.717   7.583  0.0382 -0.0528 -0.2509
 1840TIP3    H121187   4.828   5.703   7.606 -0.3937  0.0780 -1.7725
 1840TIP3    H221188   4.959   5.630   7.590 -0.1438 -0.0772  0.6025
 1841TIP3   OH221189   0.530   0.183   6.297  0.2058 -0.3876  0.7768
 1841TIP3    H121190   0.529   0.151   6.387  0.0327 -0.0309  0.9032
 1841TIP3    H221191   0.443   0.163   6.263  0.1245 -0.1330  0.8299
 1842TIP3   OH221192   6.222   0.709   7.482  0.9604 -0.4218 -0.5608
 1842TIP3    H121193   6.280   0.770   7.528  1.0630 -0.7864 -0.1976
 1842TIP3    H221194   6.272   0.627   7.479  2.9141  0.6066 -5.1730
 1843TIP3   OH221195   5.203   5.009   7.304  0.5572 -1.1304 -0.1366
 1843TIP3    H121196   5.192   4.913   7.301 -0.5160 -1.0266 -0.1306
 1843TIP3    H221197   5.218   5.028   7.397 -1.2150 -1.1290  0.1831
 1844TIP3   OH221198   3.837   5.664   1.266 -0.4893 -1.0563 -0.1479
 1844TIP3    H121199   3.907   5.602   1.245  0.7757  0.2663 -0.0482
 1844TIP3    H221200   3.761   5.632   1.219  0.2825 -2.3504 -0.5605
 1845TIP3   OH221201   0.541   1.766   6.555 -0.4574  0.3099  0.1205
 1845TIP3    H121202   0.554   1.699   6.487  2.2275  0.6048  0.2505
 1845TIP3    H221203   0.571   1.847   6.514 -0.8574  0.8851  0.9539
 1846TIP3   OH221204   5.611   4.235   0.630  0.1343  0.0490  0.4394
 1846TIP3    H121205   5.654   4.206   0.710 -0.8167 -1.7593  0.3646
 1846TIP3    H221206   5.591   4.154   0.583 -0.3751  0.9991 -1.0778
 1847TIP3   OH221207   2.515   3.077   1.362  0.9115  0.0869 -0.4283
 1847TIP3    H121208   2.512   2.985   1.336 -0.3004 -0.5499  1.7250
 1847TIP3    H221209   2.462   3.122   1.295  1.7170 -0.7041 -1.6435
 1848TIP3   OH221210   6.247   0.642   0.508 -0.6094  0.0571 -0.0094
 1848TIP3    H121211   6.333   0.637   0.549 -0.1136  1.7735 -0.7839
 1848TIP3    H221212   6.186   0.628   0.581  0.2828  1.2736  1.0169
 1849TIP3   OH221213   0.324   5.243   0.210  0.1771  0.2334 -0.2779
 1849TIP3    H121214   0.400   5.192   0.239 -0.5723 -0.3610  0.7516
 1849TIP3    H221215   0.289   5.193   0.136  0.2348 -0.0174 -0.1400
 1850TIP3   OH221216   2.057   5.598   0.007 -0.2893  0.0231 -0.0166
 1850TIP3    H121217   2.015   5.645  -0.065  1.2476 -0.2937 -1.1558
 1850TIP3    H221218   2.141   5.569  -0.028  0.8405  0.4968  2.1276
 1851TIP3   OH221219   5.059   3.089   0.942  0.3083 -0.4069  0.1587
 1851TIP3    H121220   5.052   3.175   0.984  0.1879 -0.7084  0.7781
 1851TIP3    H221221   4.993   3.036   0.988 -0.8571 -0.3773 -1.3960
 1852TIP3   OH221222   3.603   4.969   7.577 -0.0036 -0.1286 -0.3805
 1852TIP3    H121223   3.669   5.020   7.624  0.0295 -1.4280  1.0713
 1852TIP3    H221224   3.555   5.033   7.526  0.0031  1.3918  1.3983
 1853TIP3   OH221225   2.727   5.730   7.467 -0.1856 -0.1142  0.2275
 1853TIP3    H121226   2.655   5.786   7.496 -2.7218 -2.3328 -1.3272
 1853TIP3    H221227   2.782   5.788   7.413 -0.2607  1.8365  2.0978
 1854TIP3   OH221228   5.922   3.954   0.625 -0.3290  0.1336 -0.1723
 1854TIP3    H121229   5.910   3.867   0.664 -0.4042  0.9432  1.7747
 1854TIP3    H221230   6.004   3.984   0.662 -0.3836  0.9498 -0.7118
 1855TIP3   OH221231   1.422   3.313   6.591  0.1357 -0.3435 -0.0559
 1855TIP3    H121232   1.402   3.227   6.555  0.8070 -0.2173 -0.7682
 1855TIP3    H221233   1.363   3.372   6.544  0.9236 -0.1956 -0.9068
 1856TIP3   OH221234   5.622   2.302   6.624  0.0292  0.0914 -0.2086
 1856TIP3    H121235   5.531   2.287   6.647  0.3611 -0.1507  1.0491
 1856TIP3    H221236   5.624   2.301   6.528 -1.7721  2.9509 -0.4130
 1857TIP3   OH221237   0.479   4.843   7.000  0.2748  0.0670 -0.0659
 1857TIP3    H121238   0.484   4.781   6.927  1.5751 -1.6562  1.3644
 1857TIP3    H221239   0.385   4.860   7.011  0.0611  0.4705 -2.1660
 1858TIP3   OH221240   3.923   2.875   7.507  0.0808 -0.5611  0.1394
 1858TIP3    H121241   3.943   2.832   7.590 -0.2029 -0.2882  0.3484
 1858TIP3    H221242   3.981   2.832   7.444  0.0760 -0.9860  0.4171
 1859TIP3   OH221243   1.406   0.420   1.893 -0.2255  0.7758  0.3420
 1859TIP3    H121244   1.390   0.393   1.803  0.8548  1.9740 -0.2482
 1859TIP3    H221245   1.334   0.478   1.915 -0.8527 -0.0519  0.4992
 1860TIP3   OH221246   1.668   2.574   1.801  0.1080  0.5883 -0.2987
 1860TIP3    H121247   1.664   2.667   1.779 -2.0919  0.4426 -0.7958
 1860TIP3    H221248   1.666   2.572   1.897  0.8168  1.0591 -0.2697
 1861TIP3   OH221249   0.029   2.687   6.624 -0.8944  0.3702 -0.6807
 1861TIP3    H121250  -0.040   2.623   6.606  0.7065 -1.4135 -0.8631
 1861TIP3    H221251   0.024   2.700   6.719 -1.6312  0.4580 -0.7240
 1862TIP3   OH221252   5.205   3.964   7.037 -0.5738  0.2293  0.0668
 1862TIP3    H121253   5.168   3.912   6.966  0.4818 -0.1473 -0.2315
 1862TIP3    H221254   5.139   4.031   7.055 -1.8292 -1.0287  0.2675
 1863TIP3   OH221255   1.362   0.279   0.090  0.0738 -0.4695  0.0825
 1863TIP3    H121256   1.446   0.273   0.043  0.5748  0.8528  0.7479
 1863TIP3    H221257   1.367   0.209   0.156 -0.0793 -1.4839 -0.9459
 1864TIP3   OH221258   1.389   4.372   0.209 -0.1246 -0.3414  0.5953
 1864TIP3    H121259   1.436   4.360   0.127  0.4249 -3.0515  1.1964
 1864TIP3    H221260   1.439   4.439   0.256  0.0645  0.5886 -0.8529
 1865TIP3   OH221261   2.989   1.256   6.737  0.1519  0.2035 -0.1600
 1865TIP3    H121262   2.912   1.204   6.714 -2.1612  3.3147 -0.0369
 1865TIP3    H221263   3.018   1.294   6.654  0.3415  0.5916  0.0828
 1866TIP3   OH221264   1.489   1.317   0.144 -0.2091  0.2329 -1.2889
 1866TIP3    H121265   1.466   1.231   0.108 -1.5953  0.2661 -0.5698
 1866TIP3    H221266   1.413   1.372   0.124 -0.2931  0.6909  0.1602
 1867TIP3   OH221267   3.852   4.459   1.115  0.7582 -0.3430 -0.3398
 1867TIP3    H121268   3.856   4.470   1.210 -2.1709  3.0926 -0.3796
 1867TIP3    H221269   3.845   4.365   1.101  1.0026 -0.9267  2.8547
 1868TIP3   OH221270   4.559   2.618   7.745  0.1578 -0.4565 -0.6263
 1868TIP3    H121271   4.523   2.692   7.793 -0.2179 -0.7280 -0.4935
 1868TIP3    H221272   4.653   2.622   7.763  0.4631  1.1979 -2.2369
 1869TIP3   OH221273   3.739   3.174   7.649 -0.3166 -0.0697 -0.1354
 1869TIP3    H121274   3.645   3.178   7.670 -0.5813  0.1218 -1.2641
 1869TIP3    H221275   3.761   3.081   7.655 -0.6587 -0.1540 -0.1690
 1870TIP3   OH221276   4.589   0.868   7.502  0.0033  0.2930 -0.2151
 1870TIP3    H121277   4.661   0.876   7.439 -0.8190 -0.4468 -1.2891
 1870TIP3    H221278   4.633   0.860   7.587  1.1798  0.1369 -0.8101
 1871TIP3   OH221279   0.431   3.460   0.041 -0.0241  0.0234  0.3488
 1871TIP3    H121280   0.514   3.413   0.045  1.0870  1.9821  1.5076
 1871TIP3    H221281   0.388   3.442   0.124  0.7066  1.5211  1.0784
 1872TIP3   OH221282   3.354   4.189   5.660 -0.1732  0.5249  0.0087
 1872TIP3    H121283   3.361   4.094   5.649  1.8308  0.6119  0.1762
 1872TIP3    H221284   3.445   4.220   5.664 -0.7797  2.4442  0.0735
 1873TIP3   OH221285   1.192   6.159   0.709  0.3769 -0.0005  0.1149
 1873TIP3    H121286   1.274   6.185   0.751  0.2953 -0.1014  0.3411
 1873TIP3    H221287   1.144   6.113   0.778 -0.5148  1.3493  0.4353
 1874TIP3   OH221288   4.886   1.665   1.305 -0.0041 -0.2295  0.2559
 1874TIP3    H121289   4.920   1.639   1.390 -0.7936  0.4800  0.8016
 1874TIP3    H221290   4.924   1.752   1.290 -0.0438 -0.2575 -0.0207
 1875TIP3   OH221291   5.609   2.791   0.482 -0.0421  0.0074  0.0237
 1875TIP3    H121292   5.540   2.809   0.546  0.1114 -0.6807  0.3895
 1875TIP3    H221293   5.575   2.825   0.399 -0.4206  0.5221  0.3883
 1876TIP3   OH221294   5.029   6.068   6.688 -0.5375 -0.3301  0.3500
 1876TIP3    H121295   5.007   6.161   6.698  2.8570  0.4677  1.6443
 1876TIP3    H221296   5.014   6.050   6.595 -0.7750  1.6774 -0.0479
 1877TIP3   OH221297   4.899   4.268   5.948 -0.2710  0.8803  0.0007
 1877TIP3    H121298   4.910   4.336   5.881 -1.3080  1.4832  0.4179
 1877TIP3    H221299   4.842   4.203   5.906  1.0053  0.0689 -0.5236
 1878TIP3   OH221300   3.205   4.492   1.563 -0.5314 -0.0039 -0.2609
 1878TIP3    H121301   3.195   4.578   1.605  1.1156  0.8728 -1.5269
 1878TIP3    H221302   3.204   4.511   1.469 -0.5754 -1.4401 -0.5719
 1879TIP3   OH221303   0.107   1.343   7.086  0.4373  0.5476  0.1862
 1879TIP3    H121304   0.068   1.383   7.008  2.7679  0.7881 -0.9158
 1879TIP3    H221305   0.170   1.408   7.118 -0.8556  0.7164  2.6935
 1880TIP3   OH221306   2.155   3.089   0.198 -0.3249 -0.0396 -0.5369
 1880TIP3    H121307   2.099   3.093   0.275  0.3538  0.0605 -0.0361
 1880TIP3    H221308   2.236   3.132   0.225 -1.1159  2.7808 -2.2456
 1881TIP3   OH221309   0.320   5.668   0.156 -0.0602 -0.4057 -0.1184
 1881TIP3    H121310   0.311   5.630   0.068 -1.4254  0.7457 -0.5004
 1881TIP3    H221311   0.383   5.611   0.200  0.2302 -1.3276 -1.6608
 1882TIP3   OH221312   0.376   5.105   2.076  0.3310  0.0898  0.0389
 1882TIP3    H121313   0.317   5.155   2.133 -0.4446 -0.1776 -0.5119
 1882TIP3    H221314   0.342   5.016   2.079 -0.3062  0.2417 -1.5693
 1883TIP3   OH221315   6.014   2.379   0.367 -0.2802  0.3641 -0.0970
 1883TIP3    H121316   6.004   2.463   0.323 -1.8154  1.1284  1.6115
 1883TIP3    H221317   6.100   2.382   0.407 -0.2371  1.0138 -0.2410
 1884TIP3   OH221318   4.858   2.362   6.900 -0.6564 -0.6960  0.0511
 1884TIP3    H121319   4.908   2.438   6.931 -1.8003  0.4955 -0.9462
 1884TIP3    H221320   4.918   2.289   6.910  1.3240  0.6768 -1.1057
 1885TIP3   OH221321   1.489   3.360   0.116 -0.0163  0.1976 -0.9796
 1885TIP3    H121322   1.553   3.322   0.177 -0.7805 -0.5014 -0.5861
 1885TIP3    H221323   1.521   3.449   0.099  0.4636  0.2422  0.0826
 1886TIP3   OH221324   2.113   3.579   1.189 -0.0282  0.0542  0.0821
 1886TIP3    H121325   2.147   3.667   1.208  0.1771  0.5546 -2.3378
 1886TIP3    H221326   2.045   3.565   1.256  0.9128  1.4230  1.3999
 1887TIP3   OH221327   4.583   6.114   1.750 -0.2040  0.3119  0.4956
 1887TIP3    H121328   4.559   6.187   1.807 -0.7782  0.3087  0.2589
 1887TIP3    H221329   4.545   6.135   1.665  1.9892  1.1063 -0.3712
 1888TIP3   OH221330   2.924   2.791   7.378  0.0610 -0.0783 -0.3717
 1888TIP3    H121331   2.889   2.836   7.300  1.6631  0.9243 -0.5502
 1888TIP3    H221332   2.991   2.850   7.411  0.5543 -1.2767  0.8151
 1889TIP3   OH221333   5.508   0.128   6.724  0.2439  0.7988  0.2407
 1889TIP3    H121334   5.428   0.180   6.728  0.6553  1.7183 -1.9277
 1889TIP3    H221335   5.579   0.192   6.728  0.7637  0.6832 -3.4391
 1890TIP3   OH221336   4.049   1.953   1.357  0.0734  0.0362 -0.0789
 1890TIP3    H121337   3.974   1.902   1.386 -1.2588  1.5343 -0.7487
 1890TIP3    H221338   4.108   1.889   1.317  0.2277 -1.5083  2.4253
 1891TIP3   OH221339   2.517   0.052   7.174 -0.1552  0.3918  0.6097
 1891TIP3    H121340   2.447   0.092   7.226 -0.1404 -0.5975  1.4085
 1891TIP3    H221341   2.484  -0.035   7.152 -0.0423  0.6908 -0.8247
 1892TIP3   OH221342   0.124   5.060   0.540  0.4263 -0.0270  0.2888
 1892TIP3    H121343   0.047   5.029   0.494  1.1365 -0.0787 -0.9157
 1892TIP3    H221344   0.195   5.003   0.510  1.4550  1.7452 -0.7813
 1893TIP3   OH221345   3.256   1.778   1.716  0.6040  0.2916  0.1696
 1893TIP3    H121346   3.190   1.815   1.657  0.3524 -1.1165 -0.4946
 1893TIP3    H221347   3.234   1.685   1.720  3.0375 -0.3872 -0.7270
 1894TIP3   OH221348   2.894   4.689   1.040 -0.1875 -0.3589 -0.4842
 1894TIP3    H121349   2.802   4.710   1.022 -1.0324 -1.7259  1.8905
 1894TIP3    H221350   2.915   4.618   0.979  0.2989  1.8721 -3.0997
 1895TIP3   OH221351   3.899   2.361   0.003  0.3544 -0.4309 -0.1935
 1895TIP3    H121352   3.862   2.417  -0.065  0.6344  0.9957  0.7969
 1895TIP3    H221353   3.907   2.275  -0.039 -1.7139 -0.1913 -1.2186
 1896TIP3   OH221354   2.590   4.748   1.405 -0.6559 -0.0998  0.0484
 1896TIP3    H121355   2.577   4.803   1.328  0.0003  2.6579  1.7440
 1896TIP3    H221356   2.502   4.730   1.437 -0.8737  1.6452  0.5071
 1897TIP3   OH221357   0.247   0.813   1.146 -0.2276  0.2767 -0.2691
 1897TIP3    H121358   0.338   0.830   1.120 -0.2191  0.6322 -0.0123
 1897TIP3    H221359   0.250   0.727   1.189  0.4655  1.4053  2.0887
 1898TIP3   OH221360   4.619   4.260   7.543  0.0461  0.1544 -0.4410
 1898TIP3    H121361   4.680   4.333   7.533  0.6691 -0.0490  1.4173
 1898TIP3    H221362   4.605   4.254   7.638 -1.0390 -1.2992 -0.6644
 1899TIP3   OH221363   0.092   5.557   1.668  0.5476  0.5161 -0.1277
 1899TIP3    H121364   0.075   5.588   1.757  1.4597  1.1293 -0.1556
 1899TIP3    H221365   0.006   5.560   1.625  0.3040  1.3175  0.3930
 1900TIP3   OH221366   0.137   0.177   1.408 -0.4209 -0.2694  0.0599
 1900TIP3    H121367   0.077   0.177   1.334  0.0406 -0.1026 -0.3154
 1900TIP3    H221368   0.089   0.132   1.478 -1.9581  1.9839  0.5631
 1901TIP3   OH221369   2.546   5.876   1.672 -0.0224  0.2823  0.1515
 1901TIP3    H121370   2.467   5.929   1.680  0.0330  0.1190  2.5978
 1901TIP3    H221371   2.592   5.889   1.755  1.2670 -1.6125 -0.2010
 1902TIP3   OH221372   1.752   0.353   1.325 -0.1609  0.9955 -0.5943
 1902TIP3    H121373   1.812   0.331   1.254  0.8307 -0.1314  0.5601
 1902TIP3    H221374   1.796   0.423   1.374 -0.5741  1.3527 -0.7207
 1903TIP3   OH221375   4.678   5.137   1.655  0.3134  0.0016  0.4076
 1903TIP3    H121376   4.665   5.160   1.747 -1.6977 -2.0555  0.7118
 1903TIP3    H221377   4.745   5.068   1.657 -0.1959 -0.4969  0.4078
 1904TIP3   OH221378   5.627   4.086   7.398 -0.4565  0.2844 -0.5622
 1904TIP3    H121379   5.584   4.009   7.362  0.0780  0.1370 -0.8958
 1904TIP3    H221380   5.641   4.143   7.322  1.6805 -0.5035 -0.8130
 1905TIP3   OH221381   5.276   0.468   2.534  0.2093  0.8984 -0.5332
 1905TIP3    H121382   5.304   0.404   2.599  0.6528  0.6478 -0.9654
 1905TIP3    H221383   5.283   0.553   2.579 -0.8949  0.6077  0.2098
 1906TIP3   OH221384   4.071   1.427   7.200  0.1286 -0.4808 -0.3165
 1906TIP3    H121385   4.051   1.520   7.189  1.7547 -0.1930 -1.0927
 1906TIP3    H221386   4.092   1.417   7.293  1.5467  0.2758 -0.5405
 1907TIP3   OH221387   6.247   5.265   6.757  0.8608 -0.1822  0.3641
 1907TIP3    H121388   6.187   5.221   6.698  0.9446 -0.6023  0.5890
 1907TIP3    H221389   6.192   5.322   6.810  0.9789  1.6551 -1.3752
 1908TIP3   OH221390   5.870   4.374   1.362 -0.3394  0.1544  0.0639
 1908TIP3    H121391   5.875   4.289   1.318  0.1938 -0.7636  1.8081
 1908TIP3    H221392   5.794   4.366   1.420  1.1162 -0.0601  2.0216
 1909TIP3   OH221393   3.504   0.721   7.237 -0.5167 -0.5845 -0.0216
 1909TIP3    H121394   3.516   0.655   7.168  0.2292  0.6263 -1.0881
 1909TIP3    H221395   3.507   0.671   7.318 -1.5219 -2.0655 -0.8480
 1910TIP3   OH221396   3.397   3.690   7.282  0.2715 -0.3490 -0.0040
 1910TIP3    H121397   3.379   3.714   7.191 -2.0048  3.8852  1.3145
 1910TIP3    H221398   3.330   3.625   7.303  0.5468 -1.0447 -1.1736
 1911TIP3   OH221399   5.437   1.349   0.255 -0.5612  0.3807 -0.0437
 1911TIP3    H121400   5.348   1.372   0.281 -1.0664 -0.3685 -1.0751
 1911TIP3    H221401   5.446   1.382   0.166  0.1532  0.3384  0.0037
 1912TIP3   OH221402   2.859   2.066   0.721  0.0082 -0.5683 -0.7100
 1912TIP3    H121403   2.853   2.157   0.748 -0.3886 -0.2670 -1.7559
 1912TIP3    H221404   2.945   2.037   0.751 -0.3276 -0.2112  0.6531
 1913TIP3   OH221405   1.681   4.133   0.955 -0.6375 -0.3275 -0.0224
 1913TIP3    H121406   1.658   4.190   0.882 -1.2746 -1.3861 -0.6921
 1913TIP3    H221407   1.655   4.045   0.925  1.0871 -1.0962  0.6246
 1914TIP3   OH221408   0.874   2.611   6.338  0.1994  0.4263 -0.6374
 1914TIP3    H121409   0.963   2.631   6.368 -0.4841 -0.8381  2.7533
 1914TIP3    H221410   0.870   2.515   6.337 -1.6182  0.3802  1.4320
 1915TIP3   OH221411   3.707   5.753   0.985 -0.5703  0.1704 -0.3712
 1915TIP3    H121412   3.681   5.819   1.049 -2.1400 -1.5348  0.8874
 1915TIP3    H221413   3.795   5.778   0.958 -0.3456  1.6600  1.5362
 1916TIP3   OH221414   0.492   0.789   6.885  0.1431  0.2036  0.7922
 1916TIP3    H121415   0.575   0.803   6.840 -0.1755 -1.1381 -0.2878
 1916TIP3    H221416   0.442   0.869   6.869  1.1889  1.0208  1.4470
 1917TIP3   OH221417   5.987   0.428   1.746  0.1944  0.0739 -0.1401
 1917TIP3    H121418   5.961   0.472   1.665 -0.0752 -0.4756 -0.3578
 1917TIP3    H221419   6.068   0.381   1.723 -0.5747 -1.1282 -0.4557
 1918TIP3   OH221420   6.050   0.048   5.664 -0.4063 -0.0930 -0.0310
 1918TIP3    H121421   5.999   0.126   5.643  0.1573  0.5307  0.8281
 1918TIP3    H221422   5.986  -0.023   5.667 -1.0361  0.4675 -0.0946
 1919TIP3   OH221423   4.873   4.805   5.782 -0.1385  0.3292 -0.0303
 1919TIP3    H121424   4.946   4.768   5.732 -1.2405  0.7525 -2.0654
 1919TIP3    H221425   4.914   4.866   5.843  1.3265 -0.7503  0.1261
 1920TIP3   OH221426   4.628   2.070   2.392  0.1786  0.0059  0.4653
 1920TIP3    H121427   4.592   1.999   2.338  1.5746 -0.8801  0.6523
 1920TIP3    H221428   4.589   2.150   2.356 -0.6164 -0.7640 -0.4297
 1921TIP3   OH221429   3.876   3.386   1.581 -0.0662 -0.2503  0.4156
 1921TIP3    H121430   3.823   3.465   1.587 -0.0853  0.0092 -2.0707
 1921TIP3    H221431   3.961   3.410   1.618 -0.3360  0.6582  0.4689
 1922TIP3   OH221432   4.970   3.540   1.041  0.0497  0.0891  0.4051
 1922TIP3    H121433   4.903   3.598   1.004  0.8788  0.1797 -0.9827
 1922TIP3    H221434   5.050   3.593   1.040  0.6733 -0.8526 -0.2738
 1923TIP3   OH221435   4.268   4.681   1.130  0.3172 -0.3037  0.2706
 1923TIP3    H121436   4.235   4.618   1.066  1.7152 -0.8716  0.0791
 1923TIP3    H221437   4.198   4.685   1.196 -0.5524 -0.7248 -0.5884
 1924TIP3   OH221438   2.215   3.206   1.663  0.1144 -0.0890  0.0339
 1924TIP3    H121439   2.306   3.188   1.687  0.5699 -0.3834 -1.7382
 1924TIP3    H221440   2.203   3.161   1.579 -2.0644 -1.1356  0.8319
 1925TIP3   OH221441   1.664   4.858   0.452 -0.5609  0.2292  0.4156
 1925TIP3    H121442   1.610   4.894   0.382 -0.9707  2.2183  1.6879
 1925TIP3    H221443   1.670   4.928   0.517  4.9458  0.9225 -0.3147
 1926TIP3   OH221444   1.367   4.184   6.677  0.0025  0.1431  0.1901
 1926TIP3    H121445   1.416   4.260   6.647  0.6564 -0.8521 -1.4049
 1926TIP3    H221446   1.413   4.155   6.756  0.5071  0.6540  0.0911
 1927TIP3   OH221447   2.558   5.982   6.621  0.1036 -0.0183  0.3192
 1927TIP3    H121448   2.499   5.938   6.682 -0.1046  1.4458  1.2230
 1927TIP3    H221449   2.515   6.064   6.600  1.5606  0.8577  0.6009
 1928TIP3   OH221450   3.871   6.034   0.510  0.4171 -0.0733 -0.0278
 1928TIP3    H121451   3.793   6.051   0.458 -0.2240 -1.4936  0.4168
 1928TIP3    H221452   3.905   5.951   0.476  1.3874  0.2244  0.1895
 1929TIP3   OH221453   1.360   3.985   0.289 -0.0532  0.2089  0.5176
 1929TIP3    H121454   1.400   3.987   0.376 -2.1144  2.7081  1.5437
 1929TIP3    H221455   1.300   3.911   0.292  0.0486  0.1447  1.1650
 1930TIP3   OH221456   6.028   4.929   1.961 -0.0389 -0.2574 -0.5763
 1930TIP3    H121457   5.953   4.878   1.991  1.9901 -2.0036  2.0756
 1930TIP3    H221458   6.023   5.010   2.013 -0.2004 -0.2966 -0.5290
 1931TIP3   OH221459   3.502   0.046   1.310 -0.2331  0.3049  0.3374
 1931TIP3    H121460   3.453   0.044   1.393 -2.1567  2.0783 -0.6395
 1931TIP3    H221461   3.545   0.131   1.310  0.9340 -0.2684  0.1059
 1932TIP3   OH221462   3.001   3.403   6.768  0.7124 -0.0791  0.0721
 1932TIP3    H121463   3.026   3.467   6.701  0.9799  0.6338  0.8251
 1932TIP3    H221464   3.060   3.329   6.754  0.4767 -0.1195 -0.7423
 1933TIP3   OH221465   2.905   4.669   1.580  0.0135 -0.4238  0.0819
 1933TIP3    H121466   2.907   4.585   1.534  1.0808 -0.3678 -0.0220
 1933TIP3    H221467   2.988   4.672   1.627 -1.0026 -0.4090  1.9312
 1934TIP3   OH221468   2.915   1.603   6.931  0.0831  0.0880 -0.0551
 1934TIP3    H121469   2.949   1.691   6.943  1.7316 -0.4158 -0.7833
 1934TIP3    H221470   2.923   1.586   6.837 -0.4197 -0.7690  0.0387
 1935TIP3   OH221471   5.169   2.043   6.613  0.3914 -0.0263 -0.1124
 1935TIP3    H121472   5.137   1.985   6.544 -0.5224  0.2542  0.0487
 1935TIP3    H221473   5.218   1.986   6.672 -0.0831 -0.5519 -0.2143
 1936TIP3   OH221474   3.770   3.482   0.451  0.0889 -0.4261 -0.7033
 1936TIP3    H121475   3.859   3.483   0.414  0.8375 -1.3517  0.9883
 1936TIP3    H221476   3.783   3.489   0.545 -1.7411  1.0477 -0.5077
 1937TIP3   OH221477   2.172   1.808   0.000  0.2564  0.2439 -0.4177
 1937TIP3    H121478   2.128   1.727   0.026 -1.3802  1.3400  0.3350
 1937TIP3    H221479   2.219   1.836   0.079 -1.4547  1.4544  0.2282
 1938TIP3   OH221480   3.194   1.594   0.405  0.5589 -0.5785  0.0749
 1938TIP3    H121481   3.156   1.680   0.419  1.9017 -0.1362  1.1051
 1938TIP3    H221482   3.150   1.562   0.326 -0.1917  0.8973 -0.1434
 1939TIP3   OH221483   6.141   0.162   0.596 -0.3564 -0.8759  0.2501
 1939TIP3    H121484   6.162   0.253   0.574 -0.0044 -1.3329 -1.4049
 1939TIP3    H221485   6.225   0.122   0.614 -0.4106 -1.1311 -0.0612
 1940TIP3   OH221486   0.677   4.008   7.259 -0.0047  0.2252 -0.6667
 1940TIP3    H121487   0.772   4.025   7.259  0.4755 -2.0758 -1.7267
 1940TIP3    H221488   0.666   3.937   7.323 -1.0550  0.5428 -0.4792
 1941TIP3   OH221489   1.109   1.217   2.683  0.0449  0.2094  0.2811
 1941TIP3    H121490   1.028   1.261   2.708 -0.5891 -1.3810  1.1673
 1941TIP3    H221491   1.138   1.172   2.762  1.2707 -0.0534 -0.2873
 1942TIP3   OH221492   0.259   1.549   1.653 -0.5172 -0.3378 -0.3162
 1942TIP3    H121493   0.264   1.570   1.560  1.1505 -0.1030 -0.2101
 1942TIP3    H221494   0.213   1.623   1.692  0.2107  0.3470 -0.7420
 1943TIP3   OH221495   3.520   3.723   1.085  0.0912  0.9198  0.2572
 1943TIP3    H121496   3.560   3.636   1.079 -0.1363  0.7236  1.3891
 1943TIP3    H221497   3.442   3.717   1.031 -0.3732  0.1484  0.9855
 1944TIP3   OH221498   2.685   0.601   7.314 -0.0106  0.7744  0.4331
 1944TIP3    H121499   2.664   0.513   7.345 -0.2821  0.2365 -1.1754
 1944TIP3    H221500   2.734   0.641   7.386 -1.8311  0.1295  2.0935
 1945TIP3   OH221501   4.255   5.441   6.864  0.3393 -0.4527  0.3799
 1945TIP3    H121502   4.256   5.478   6.952  0.4623 -0.6967  0.4816
 1945TIP3    H221503   4.206   5.359   6.872 -1.5292  0.5582 -0.2079
 1946TIP3   OH221504   3.468   1.483   0.195  0.3006 -0.7567 -0.0942
 1946TIP3    H121505   3.549   1.533   0.182 -0.4376 -0.0155 -2.4545
 1946TIP3    H221506   3.454   1.483   0.289  1.9473  0.8783  0.2107
 1947TIP3   OH221507   1.685   0.413   7.536 -0.4717 -0.3649 -0.0741
 1947TIP3    H121508   1.638   0.333   7.560 -0.7882 -0.0351  0.4188
 1947TIP3    H221509   1.734   0.390   7.457 -0.7776 -0.9637 -0.0879
 1948TIP3   OH221510   6.019   6.216   0.895  0.1204 -0.4301  0.6505
 1948TIP3    H121511   5.934   6.176   0.910  0.2648 -1.2507 -0.5904
 1948TIP3    H221512   6.000   6.304   0.863 -0.2319 -0.1636  1.5834
 1949TIP3   OH221513   1.892   3.795   1.386  0.1868 -0.3875  0.1684
 1949TIP3    H121514   1.949   3.727   1.423  0.3684 -1.6122 -2.1947
 1949TIP3    H221515   1.803   3.762   1.401  0.2804 -1.5907 -1.5822
 1950TIP3   OH221516   1.746   1.252   0.967 -0.7168 -0.0153  0.2402
 1950TIP3    H121517   1.680   1.302   1.016  0.4762  1.8604  0.0556
 1950TIP3    H221518   1.698   1.213   0.894 -1.7171  0.9008  0.3879
 1951TIP3   OH221519   4.067   0.885   2.389  0.7296  0.6250 -0.1083
 1951TIP3    H121520   4.161   0.875   2.372  0.7542 -0.1187  0.4203
 1951TIP3    H221521   4.060   0.892   2.484  0.1512 -0.6255 -0.0360
 1952TIP3   OH221522   6.055   6.030   7.504  0.7237  0.4092  1.0849
 1952TIP3    H121523   5.996   6.044   7.578 -0.1660  0.7270  0.3415
 1952TIP3    H221524   6.092   6.117   7.486 -0.0773  0.6141  0.3444
 1953TIP3   OH221525   3.274   0.612   2.495 -0.4189  0.2023  0.1105
 1953TIP3    H121526   3.294   0.542   2.557 -2.0685  0.2930  0.7890
 1953TIP3    H221527   3.330   0.593   2.419 -0.0074 -1.1923  0.7318
 1954TIP3   OH221528   5.646   5.879   1.293  0.0940 -0.2412 -0.3581
 1954TIP3    H121529   5.662   5.785   1.298  0.4183 -0.3409 -2.4206
 1954TIP3    H221530   5.718   5.918   1.343  2.6150 -0.9829 -3.1375
 1955TIP3   OH221531   5.372   2.087   1.869  0.0455  0.0558  0.2777
 1955TIP3    H121532   5.416   2.028   1.930 -0.9615 -0.5707  0.4330
 1955TIP3    H221533   5.315   2.141   1.924 -1.8557 -1.3913 -0.1596
 1956TIP3   OH221534   1.299   3.643   2.454 -0.1022  0.3854  0.3375
 1956TIP3    H121535   1.261   3.700   2.521  0.2845  0.5372  0.4282
 1956TIP3    H221536   1.393   3.657   2.461 -0.1057  1.2116 -0.9578
 1957TIP3   OH221537   4.001   0.207   5.929 -0.4576  0.2663 -0.3642
 1957TIP3    H121538   4.061   0.137   5.905 -0.8768 -0.5633  0.9402
 1957TIP3    H221539   3.916   0.164   5.941 -0.6978  0.9642  0.5720
 1958TIP3   OH221540   0.172   1.403   2.129 -0.3276  0.0972  0.1332
 1958TIP3    H121541   0.262   1.425   2.104 -0.3392  0.0031  0.0108
 1958TIP3    H221542   0.177   1.312   2.156 -0.2962  0.2242  0.5620
 1959TIP3   OH221543   4.550   0.891   5.465 -0.0418  0.2106 -0.1650
 1959TIP3    H121544   4.575   0.906   5.556  1.3763 -0.5083 -0.3983
 1959TIP3    H221545   4.459   0.860   5.469 -0.9168  2.6651  0.7599
 1960TIP3   OH221546   1.750   5.910   0.066 -0.2814  0.0398 -0.0912
 1960TIP3    H121547   1.743   5.940   0.156  1.4576 -1.9014  0.7523
 1960TIP3    H221548   1.669   5.860   0.050 -2.5160  3.5445 -1.0431
 1961TIP3   OH221549   5.241   4.397   7.091  0.1800  0.0212  0.3833
 1961TIP3    H121550   5.188   4.320   7.068  0.4234 -0.2438  0.7008
 1961TIP3    H221551   5.306   4.364   7.153  1.5324  0.0669 -0.9491
 1962TIP3   OH221552   5.274   1.337   2.795  0.5476  0.3032  0.2428
 1962TIP3    H121553   5.313   1.401   2.736 -1.1366 -0.4785 -1.8361
 1962TIP3    H221554   5.346   1.277   2.816  1.2575  0.7732 -0.7905
 1963TIP3   OH221555   4.725   3.975   7.756  0.1004  0.2559  0.5153
 1963TIP3    H121556   4.793   3.998   7.693 -0.4803 -0.1149 -0.2572
 1963TIP3    H221557   4.751   4.020   7.836  0.2875  1.6137 -0.2802
 1964TIP3   OH221558   3.283   5.296   5.808 -0.3642  0.6309  0.1486
 1964TIP3    H121559   3.221   5.225   5.789 -0.7732  0.9529  0.2621
 1964TIP3    H221560   3.355   5.282   5.747 -0.9815  0.7981 -0.6393
 1965TIP3   OH221561   5.036   5.171   6.892  0.2496 -0.2559  0.0413
 1965TIP3    H121562   5.034   5.099   6.954 -1.7984 -1.7361 -1.6042
 1965TIP3    H221563   4.980   5.238   6.931  1.8053  0.3488  1.3628
 1966TIP3   OH221564   4.614   4.749   7.109 -0.2392  0.3453  0.0760
 1966TIP3    H121565   4.620   4.770   7.202  1.8017 -1.0570  0.3223
 1966TIP3    H221566   4.543   4.686   7.103 -1.9647  2.1647  0.2735
 1967TIP3   OH221567   4.968   5.157   1.154 -0.0480 -0.1896 -0.6445
 1967TIP3    H121568   4.912   5.215   1.103  1.5277  2.1338  0.1003
 1967TIP3    H221569   4.924   5.147   1.238  0.8069  2.1389  0.1709
 1968TIP3   OH221570   0.427   4.939   7.374 -0.2317  0.2936 -0.3867
 1968TIP3    H121571   0.360   4.875   7.399  0.0965  1.0386  2.7521
 1968TIP3    H221572   0.510   4.892   7.382 -0.1660 -0.0089 -2.2230
 1969TIP3   OH221573   5.612   1.699   7.724 -0.6709  0.2239 -0.0203
 1969TIP3    H121574   5.518   1.701   7.707 -0.1365  3.0002 -3.9331
 1969TIP3    H221575   5.649   1.656   7.647  1.3129 -2.0790  2.0631
 1970TIP3   OH221576   1.080   2.434   7.373 -0.2835  0.3990  0.0707
 1970TIP3    H121577   1.160   2.487   7.365 -0.8887  1.6664  1.7730
 1970TIP3    H221578   1.011   2.490   7.337 -0.8367  0.5493  1.3293
 1971TIP3   OH221579   0.027   3.555   0.164 -0.2691 -0.1663 -0.6521
 1971TIP3    H121580  -0.009   3.638   0.132 -0.3570 -0.5110 -1.4884
 1971TIP3    H221581   0.117   3.575   0.188 -1.2776  0.9909  2.6258
 1972TIP3   OH221582   4.343   5.791   6.918  0.3443 -0.2811  0.0196
 1972TIP3    H121583   4.412   5.835   6.968  0.8490 -1.2713  0.2200
 1972TIP3    H221584   4.377   5.703   6.903 -0.4569 -0.4696 -0.7549
 1973TIP3   OH221585   5.459   3.348   6.523 -0.2196  0.1270 -0.0093
 1973TIP3    H121586   5.535   3.291   6.514 -0.4260 -0.2633  0.6181
 1973TIP3    H221587   5.425   3.356   6.434  1.4097  1.5475 -0.5513
 1974TIP3   OH221588   3.071   5.118   0.849  0.0901  0.3522  0.3016
 1974TIP3    H121589   3.151   5.067   0.845  0.3013  0.7571 -1.0629
 1974TIP3    H221590   3.007   5.067   0.799 -0.4296  0.1596  1.1524
 1975TIP3   OH221591   2.423   1.180   0.091 -0.2078 -0.2630 -0.1498
 1975TIP3    H121592   2.337   1.220   0.105 -0.6055 -0.9694 -0.5133
 1975TIP3    H221593   2.479   1.218   0.159 -0.8153  0.1796  0.1081
 1976TIP3   OH221594   4.341   2.913   1.921 -0.8099  0.1053  0.3594
 1976TIP3    H121595   4.288   2.938   1.845 -0.3908 -1.0689 -0.3418
 1976TIP3    H221596   4.282   2.924   1.996 -1.8077 -0.4618 -0.3248
 1977TIP3   OH221597   5.297   5.477   1.345 -0.1839  0.1211 -0.4147
 1977TIP3    H121598   5.323   5.425   1.269 -0.7700 -2.7927  1.2250
 1977TIP3    H221599   5.229   5.535   1.312  1.4897  0.9385 -2.6503
 1978TIP3   OH221600   3.799   0.466   5.767 -0.2998  0.0703  0.1559
 1978TIP3    H121601   3.880   0.420   5.788 -1.1170 -2.0115 -0.9787
 1978TIP3    H221602   3.731   0.399   5.773 -1.5703  1.1215 -1.4867
 1979TIP3   OH221603   2.192   2.523   6.981 -0.3777  0.1733  0.4386
 1979TIP3    H121604   2.274   2.504   6.937 -0.1415 -1.4786  1.4980
 1979TIP3    H221605   2.205   2.610   7.021  0.0870  0.8155 -1.0466
 1980TIP3   OH221606   2.110   2.729   6.660 -0.5208 -0.0808 -0.2011
 1980TIP3    H121607   2.150   2.642   6.657 -1.5721 -0.5895  0.0072
 1980TIP3    H221608   2.078   2.743   6.571  0.3992  0.4781 -0.4601
 1981TIP3   OH221609   1.424   4.733   7.057 -0.6618  0.3699  0.2954
 1981TIP3    H121610   1.442   4.755   7.149 -2.5621  1.5694  0.4244
 1981TIP3    H221611   1.492   4.780   7.008  0.2038 -0.0553  1.0514
 1982TIP3   OH221612   1.426   3.579   7.045 -0.1318  0.1023 -0.3617
 1982TIP3    H121613   1.505   3.618   7.083  0.3466 -0.9609 -0.2138
 1982TIP3    H221614   1.456   3.541   6.962 -0.7909  0.8489 -0.9597
 1983TIP3   OH221615   4.478   0.827   6.957 -0.4858 -0.6382  0.3566
 1983TIP3    H121616   4.418   0.793   7.024 -0.5532 -1.2193  0.0056
 1983TIP3    H221617   4.504   0.751   6.906  1.1378 -0.5079  0.9461
 1984TIP3   OH221618   2.123   5.313   7.625  0.1700  0.6809 -0.5073
 1984TIP3    H121619   2.087   5.307   7.714  2.8704 -2.3870  0.5868
 1984TIP3    H221620   2.200   5.369   7.634  1.4205 -0.9605 -0.4097
 1985TIP3   OH221621   5.460   0.730   1.477  0.1558  0.0478  0.1996
 1985TIP3    H121622   5.463   0.664   1.546  2.0503  0.0647  0.1965
 1985TIP3    H221623   5.480   0.681   1.397 -3.8590 -0.3466 -0.7735
 1986TIP3   OH221624   4.999   4.564   5.851  0.0627  0.2099  0.2256
 1986TIP3    H121625   5.021   4.595   5.939 -1.1806 -3.2569  1.9453
 1986TIP3    H221626   5.082   4.530   5.816  0.5554  1.5872 -0.0043
 1987TIP3   OH221627   5.631   4.241   6.248  0.0491  0.5025 -0.0779
 1987TIP3    H121628   5.642   4.314   6.188 -1.9135 -0.4991 -1.8169
 1987TIP3    H221629   5.536   4.233   6.259  0.0490 -2.5450 -1.0966
 1988TIP3   OH221630   2.435   1.372   0.779  0.1632 -0.0480  0.4899
 1988TIP3    H121631   2.513   1.422   0.804  0.6589 -1.1818  1.3128
 1988TIP3    H221632   2.362   1.422   0.815  0.6984 -0.2972  2.0176
 1989TIP3   OH221633   2.918   0.850   6.797  0.3334 -0.3658 -0.1871
 1989TIP3    H121634   2.863   0.787   6.750 -0.3018  1.9968 -2.8505
 1989TIP3    H221635   2.969   0.796   6.859 -0.8753 -3.3130 -1.5840
 1990TIP3   OH221636   2.603   3.253   2.178  0.9557  0.1354  0.0571
 1990TIP3    H121637   2.651   3.185   2.225  0.2980 -0.5297 -0.2194
 1990TIP3    H221638   2.565   3.308   2.246  0.8635 -0.2157  0.2879
 1991TIP3   OH221639   6.233   1.050   6.454 -0.3463  0.9413 -0.0834
 1991TIP3    H121640   6.303   1.067   6.517 -0.5807  1.0206  0.1592
 1991TIP3    H221641   6.195   1.137   6.437 -0.9094  0.8065  0.4076
 1992TIP3   OH221642   3.696   2.567   1.625  0.4839  0.0769  0.4287
 1992TIP3    H121643   3.649   2.649   1.637 -0.3203 -0.2402 -0.4897
 1992TIP3    H221644   3.775   2.577   1.679  1.1894  2.0796 -0.8673
 1993TIP3   OH221645   1.192   1.247   6.729 -0.3093 -0.1296 -0.1519
 1993TIP3    H121646   1.222   1.253   6.820 -0.7713  3.1498 -0.1002
 1993TIP3    H221647   1.099   1.267   6.734 -0.6006 -1.1216 -1.2570
 1994TIP3   OH221648   0.909   3.960   6.972  0.0479  0.2548  0.0538
 1994TIP3    H121649   0.945   3.963   7.061  1.8210  0.5169 -0.6220
 1994TIP3    H221650   0.895   3.867   6.955  1.3169  0.0432  0.0346
 1995TIP3   OH221651   0.727   2.372   0.711  0.1349  0.0365 -0.2352
 1995TIP3    H121652   0.680   2.289   0.703 -1.0436  0.6413  0.2791
 1995TIP3    H221653   0.660   2.439   0.700  1.2759  0.9672 -1.9885
 1996TIP3   OH221654   0.330   6.272   7.000  0.2063 -0.1702 -0.3121
 1996TIP3    H121655   0.254   6.277   7.058 -0.9452  1.6072 -1.8299
 1996TIP3    H221656   0.359   6.181   7.005 -0.6470 -0.3608  1.9881
 1997TIP3   OH221657   1.040   1.844   7.359 -0.1356 -0.1489  0.2914
 1997TIP3    H121658   0.978   1.777   7.389  0.1184 -0.4325  0.1878
 1997TIP3    H221659   1.020   1.921   7.413 -1.1284  0.0274 -0.3093
 1998TIP3   OH221660   1.586   5.879   7.016 -0.0553  0.2172 -0.5246
 1998TIP3    H121661   1.620   5.798   6.978 -2.9788 -0.7108 -1.4417
 1998TIP3    H221662   1.631   5.949   6.968  1.9792 -0.8184 -0.2249
 1999TIP3   OH221663   1.484   4.481   1.953  0.9177  0.5135  0.8727
 1999TIP3    H121664   1.479   4.518   2.041  1.0603  0.6540  0.8220
 1999TIP3    H221665   1.407   4.514   1.908  1.2111  1.0116  0.7276
 2000TIP3   OH221666   1.361   4.044   6.983 -0.4582 -0.6026 -0.0662
 2000TIP3    H121667   1.435   4.012   7.035  0.0858  0.4828 -0.1356
 2000TIP3    H221668   1.338   3.971   6.926 -1.6230 -2.1711  2.2265
 2001TIP3   OH221669   2.944   0.054   1.944  0.1516 -0.1500 -0.2050
 2001TIP3    H121670   3.039   0.059   1.955  0.2553 -1.0588 -0.6352
 2001TIP3    H221671   2.909   0.066   2.032  0.5791  1.6541 -0.2288
 2002TIP3   OH221672   5.124   2.579   1.956  0.3342 -0.3681 -0.3424
 2002TIP3    H121673   5.151   2.647   2.018 -0.5876  0.2951 -0.6467
 2002TIP3    H221674   5.029   2.573   1.967  0.3448 -1.2586 -0.6825
 2003TIP3   OH221675   5.259   4.655   0.672 -0.3519 -0.4848  0.5833
 2003TIP3    H121676   5.283   4.629   0.583 -1.5344 -0.6308  0.2905
 2003TIP3    H221677   5.275   4.749   0.675 -2.2031 -0.0849 -0.4623
 2004TIP3   OH221678   6.019   4.902   2.630 -0.7864 -0.2786  0.4683
 2004TIP3    H121679   6.035   4.883   2.537 -0.7807  1.6315  0.0302
 2004TIP3    H221680   5.971   4.985   2.630 -1.4589 -0.6235  2.1651
 2005TIP3   OH221681   0.371   0.329   1.415 -0.4776 -0.2851 -0.3056
 2005TIP3    H121682   0.294   0.280   1.387 -0.8364  1.1278 -1.9518
 2005TIP3    H221683   0.337   0.393   1.478 -0.4035 -0.5219 -0.0182
 2006TIP3   OH221684   4.123   3.641   7.669 -0.8193  0.1563 -0.1790
 2006TIP3    H121685   4.179   3.592   7.609 -0.8131  0.5444 -0.4967
 2006TIP3    H221686   4.034   3.622   7.640 -0.7945  1.1830 -1.0055
 2007TIP3   OH221687   1.752   5.927   1.930 -0.0026  0.0722  0.0563
 2007TIP3    H121688   1.802   5.895   2.006  1.8845 -0.8844 -1.5060
 2007TIP3    H221689   1.771   6.021   1.927  2.3913 -0.3745 -0.8980
 2008TIP3   OH221690   3.220   4.664   0.059  0.5510 -0.0443  0.0579
 2008TIP3    H121691   3.156   4.614   0.008 -0.4972  0.1825  1.1231
 2008TIP3    H221692   3.195   4.756   0.047 -0.0916 -0.0156  1.4467
 2009TIP3   OH221693   5.336   3.579   2.138  0.6180  0.1897  0.0525
 2009TIP3    H121694   5.295   3.524   2.205  1.0966 -0.8214 -0.4591
 2009TIP3    H221695   5.263   3.621   2.093  0.1709 -0.7958 -0.1813
 2010TIP3   OH221696   4.497   4.787   0.419 -0.1733  0.2970 -0.4231
 2010TIP3    H121697   4.476   4.761   0.509 -0.1157  1.4997 -0.0429
 2010TIP3    H221698   4.467   4.714   0.365 -2.0352  0.3840  0.4165
 2011TIP3   OH221699   3.976   5.707   0.088  0.3020  0.1070 -0.6672
 2011TIP3    H121700   3.944   5.773   0.027 -0.3675  0.1155 -0.3115
 2011TIP3    H221701   3.901   5.651   0.105  0.6864 -0.3541 -0.4447
 2012TIP3   OH221702   3.684   4.559   0.172 -0.1802 -0.3059 -0.1049
 2012TIP3    H121703   3.660   4.632   0.115 -1.0058 -1.4482 -1.2930
 2012TIP3    H221704   3.672   4.481   0.117  2.6239 -1.2515  0.4393
 2013TIP3   OH221705   1.692   1.304   7.423 -0.0628 -0.4732  0.5149
 2013TIP3    H121706   1.655   1.227   7.465 -1.4202 -0.5091 -0.6940
 2013TIP3    H221707   1.617   1.350   7.385  0.9371  0.4105 -0.4655
 2014TIP3   OH221708   1.989   5.143   7.297  0.1790  0.3005  0.2800
 2014TIP3    H121709   1.915   5.201   7.279  0.5671  0.6531 -0.1992
 2014TIP3    H221710   2.044   5.150   7.219  0.7361  0.0724  0.6513
 2015TIP3   OH221711   1.109   2.829   7.330  0.5978 -0.8057 -0.1527
 2015TIP3    H121712   1.105   2.804   7.422 -1.0375 -0.4525 -0.0922
 2015TIP3    H221713   1.062   2.759   7.284 -1.0487  0.3848 -0.3660
 2016TIP3   OH221714   0.201   5.170   6.133 -0.0670 -0.0055 -0.0507
 2016TIP3    H121715   0.226   5.094   6.080 -2.0928 -0.1048 -0.9853
 2016TIP3    H221716   0.276   5.229   6.128 -0.5549  0.5458 -4.1562
 2017TIP3   OH221717   4.162   0.895   6.817  0.2629  0.0301  0.1958
 2017TIP3    H121718   4.103   0.956   6.860 -1.0027 -1.1817  0.2646
 2017TIP3    H221719   4.237   0.888   6.876  0.1642  1.0723  0.4515
 2018TIP3   OH221720   3.780   6.240   2.696  0.1384 -0.3599  0.2349
 2018TIP3    H121721   3.850   6.288   2.652 -0.5137  0.3955  0.0072
 2018TIP3    H221722   3.822   6.160   2.729  1.0777  0.0409  0.0161
 2019TIP3   OH221723   2.478   4.895   1.205  0.1367  0.2125 -0.6001
 2019TIP3    H121724   2.532   4.965   1.168  0.7837  0.7558  1.2998
 2019TIP3    H221725   2.398   4.940   1.233  0.7493  0.3244  1.0651
 2020TIP3   OH221726   0.304   1.884   0.922  0.2850 -0.3218 -0.4165
 2020TIP3    H121727   0.398   1.866   0.920  0.2334 -1.1260  1.7018
 2020TIP3    H221728   0.294   1.948   0.993 -0.7885 -0.4425 -0.4472
 2021TIP3   OH221729   5.891   5.994   1.385  0.4573 -0.4045 -0.1462
 2021TIP3    H121730   5.891   6.058   1.457  1.7240  0.9681 -1.2919
 2021TIP3    H221731   5.916   6.045   1.308  0.6882 -2.1375 -1.2687
 2022TIP3   OH221732   2.418   5.217   1.718  0.3065  0.1266  0.1982
 2022TIP3    H121733   2.458   5.278   1.780  2.1318 -0.3367 -0.4662
 2022TIP3    H221734   2.408   5.268   1.637  0.3512 -0.0134  0.1052
 2023TIP3   OH221735   4.769   1.791   6.064  0.6395  0.3220 -0.2023
 2023TIP3    H121736   4.744   1.871   6.110 -0.9645  0.2489 -0.8818
 2023TIP3    H221737   4.703   1.782   5.995  2.5547  0.0727 -2.1132
 2024TIP3   OH221738   2.150   5.174   7.079  0.8246 -0.2011 -0.4727
 2024TIP3    H121739   2.161   5.239   7.010  0.0724 -0.7449 -1.1321
 2024TIP3    H221740   2.151   5.090   7.033  1.9710 -0.6790  0.3820
 2025TIP3   OH221741   0.970   5.571   2.415 -0.1351 -0.1461 -0.1252
 2025TIP3    H121742   1.035   5.559   2.484  1.2988  1.1265 -1.1649
 2025TIP3    H221743   0.985   5.498   2.355 -0.9358 -0.8783  0.5380
 2026TIP3   OH221744   5.330   4.262   0.485 -0.2363 -0.2729 -0.3826
 2026TIP3    H121745   5.344   4.213   0.404  1.0275 -0.8686  0.1666
 2026TIP3    H221746   5.418   4.294   0.509 -0.1682 -1.9266  1.8747
 2027TIP3   OH221747   3.241   2.090   6.526  0.2662  0.3099  0.1364
 2027TIP3    H121748   3.216   2.179   6.551 -0.2042 -0.0907  1.1378
 2027TIP3    H221749   3.336   2.089   6.533  0.2891  0.8017 -0.0987
 2028TIP3   OH221750   2.529   0.368   7.279 -0.0970  0.2107 -0.1985
 2028TIP3    H121751   2.448   0.331   7.244  0.8509 -2.0097 -0.2138
 2028TIP3    H221752   2.542   0.323   7.362  0.7044  1.1625  0.2159
 2029TIP3   OH221753   3.593   4.400   7.227  0.2497 -0.2148  0.3312
 2029TIP3    H121754   3.633   4.484   7.207  0.7958  0.0167  2.2057
 2029TIP3    H221755   3.654   4.335   7.190  0.1287  0.1887 -0.5949
 2030TIP3   OH221756   0.379   6.177   6.583  0.0790  0.2109 -0.4497
 2030TIP3    H121757   0.427   6.119   6.642 -1.7369  0.2576  1.1960
 2030TIP3    H221758   0.334   6.117   6.523  1.0264  0.1159 -1.0930
 2031TIP3   OH221759   5.452   1.497   2.010 -0.4494 -0.0942 -0.1208
 2031TIP3    H121760   5.399   1.577   2.019 -1.2235 -0.2808 -2.3486
 2031TIP3    H221761   5.524   1.523   1.952 -0.0350 -0.7040  0.1195
 2032TIP3   OH221762   6.235   6.234   7.557  0.8827 -0.4402 -0.8055
 2032TIP3    H121763   6.249   6.327   7.540  2.0429 -0.9129 -2.8102
 2032TIP3    H221764   6.278   6.218   7.641  0.0173  0.9553 -0.0640
 2033TIP3   OH221765   5.900   3.909   7.102  0.1435 -0.5787 -0.9932
 2033TIP3    H121766   5.851   3.988   7.126  0.4206 -0.2201 -1.5778
 2033TIP3    H221767   5.967   3.900   7.170 -0.3795 -0.7568 -0.4948
 2034TIP3   OH221768   2.112   0.206   7.017  0.1660 -0.6168 -0.3315
 2034TIP3    H121769   2.041   0.179   6.960 -0.3878 -0.1923  0.1512
 2034TIP3    H221770   2.112   0.302   7.014 -1.3652 -0.4431  2.1202
 2035TIP3   OH221771   4.807   1.315   0.368  0.2448  0.3768 -0.5037
 2035TIP3    H121772   4.755   1.284   0.294 -1.3453 -0.8150  1.0161
 2035TIP3    H221773   4.801   1.245   0.433  2.4437  0.9233  0.3959
 2036TIP3   OH221774   4.804   3.283   6.684  0.4441  0.4338 -0.0325
 2036TIP3    H121775   4.718   3.266   6.724  1.5564 -0.4071  2.2043
 2036TIP3    H221776   4.789   3.275   6.590 -1.6477 -1.1385  0.3603
 2037TIP3   OH221777   0.394   3.077   2.163 -0.7390  0.5809  0.2891
 2037TIP3    H121778   0.431   2.989   2.161  0.2512  0.9803  0.5183
 2037TIP3    H221779   0.323   3.074   2.099 -0.5596 -0.3087  0.1136
 2038TIP3   OH221780   5.132   0.113   0.389 -0.3531 -0.0225 -0.2130
 2038TIP3    H121781   5.218   0.147   0.367 -1.0077  0.7891 -1.6852
 2038TIP3    H221782   5.148   0.024   0.419  0.8228 -0.7162 -2.6509
 2039TIP3   OH221783   1.722   3.964   1.760 -0.2383 -0.2368  0.0974
 2039TIP3    H121784   1.756   4.046   1.796  2.2811 -1.4707  0.7492
 2039TIP3    H221785   1.641   3.989   1.715 -0.4270  2.2985  1.6751
 2040TIP3   OH221786   6.097   3.937   6.515  0.4876  0.4716  0.1103
 2040TIP3    H121787   6.020   3.965   6.564 -1.1327 -0.4400 -1.8180
 2040TIP3    H221788   6.148   4.018   6.503 -1.7011  1.7418 -1.1837
 2041TIP3   OH221789   4.490   1.542   0.577 -0.6239  0.2227 -0.1540
 2041TIP3    H121790   4.504   1.546   0.672  1.4186 -0.2977 -0.3802
 2041TIP3    H221791   4.410   1.491   0.566 -0.6915 -0.0156  1.2789
 2042TIP3   OH221792   0.120   2.691   1.753  0.9110 -0.6137 -0.4188
 2042TIP3    H121793   0.136   2.599   1.776  2.6277 -0.1837  0.2606
 2042TIP3    H221794   0.117   2.737   1.836  0.5704  0.0357 -0.7800
 2043TIP3   OH221795   2.525   5.935   7.474  0.2045 -0.0724  0.8817
 2043TIP3    H121796   2.432   5.912   7.478 -0.2154  0.5656 -2.6178
 2043TIP3    H221797   2.540   5.983   7.556 -2.1582 -1.3155  2.1783
 2044TIP3   OH221798   1.108   3.089   1.193 -0.4898  0.4916  0.1310
 2044TIP3    H121799   1.080   3.153   1.258 -1.2757 -0.1172  0.3949
 2044TIP3    H221800   1.108   3.006   1.239  0.5439  0.2824 -0.2090
 2045TIP3   OH221801   3.933   3.335   7.567 -0.1483 -0.0973  0.1815
 2045TIP3    H121802   3.995   3.290   7.510 -1.2622  0.6904 -1.7520
 2045TIP3    H221803   3.860   3.273   7.576  0.1241 -0.3077  0.9396
 2046TIP3   OH221804   2.909   4.770   1.959 -0.0732 -0.8826 -0.0752
 2046TIP3    H121805   2.876   4.767   2.049  0.9702 -0.1288  0.3527
 2046TIP3    H221806   2.837   4.806   1.908 -0.7078 -1.4037  0.4306
 2047TIP3   OH221807   5.580   0.541   6.786 -0.1798  0.8665 -0.2533
 2047TIP3    H121808   5.524   0.599   6.838  0.3057  1.0373  0.0805
 2047TIP3    H221809   5.631   0.492   6.850 -0.8885 -0.2556 -0.5179
 2048TIP3   OH221810   1.052   5.395   6.874  0.2671  0.0641  0.2751
 2048TIP3    H121811   1.003   5.349   6.807  2.6636 -0.8324 -0.9772
 2048TIP3    H221812   1.120   5.443   6.826  0.8757  0.9336  1.9155
 2049TIP3   OH221813   4.242   2.182   7.096  0.3811 -0.0368 -0.4070
 2049TIP3    H121814   4.273   2.093   7.078 -1.0159 -0.8162  0.7603
 2049TIP3    H221815   4.226   2.220   7.010  2.4665 -0.3308 -0.9718
 2050TIP3   OH221816   0.008   1.177   1.105  0.4717  0.0765  0.2600
 2050TIP3    H121817  -0.055   1.125   1.155 -1.2650 -0.1143 -1.9898
 2050TIP3    H221818   0.063   1.112   1.062  1.5300  0.2328  1.3231
 2051TIP3   OH221819   4.779   5.567   0.671 -1.2006  0.1373  0.0114
 2051TIP3    H121820   4.705   5.506   0.671 -2.5626  1.6879  0.6965
 2051TIP3    H221821   4.841   5.531   0.608 -2.6176 -1.1492 -0.6979
 2052TIP3   OH221822   4.003   2.761   6.425 -0.0588 -0.3323 -0.6174
 2052TIP3    H121823   3.967   2.683   6.467  0.5832 -0.0585  0.5012
 2052TIP3    H221824   4.003   2.741   6.332 -1.0741 -1.1651 -0.4561
 2053TIP3   OH221825   2.042   0.017   1.058  0.0851  0.0657  0.3599
 2053TIP3    H121826   2.082  -0.050   1.002  0.5791  0.4185  0.2827
 2053TIP3    H221827   2.104   0.027   1.131  1.5254  2.5249 -1.1015
 2054TIP3   OH221828   0.913   4.256   7.517  0.2796  0.4285 -0.6629
 2054TIP3    H121829   0.894   4.301   7.435  0.2718  0.5993 -0.5685
 2054TIP3    H221830   0.983   4.309   7.558 -0.0197  0.5912 -0.3576
 2055TIP3   OH221831   1.574   2.249   0.206  0.0228 -0.5027 -0.5401
 2055TIP3    H121832   1.554   2.342   0.212  4.1883  0.5063  0.1092
 2055TIP3    H221833   1.559   2.228   0.113 -1.3126  0.6558 -0.6297
 2056TIP3   OH221834   2.201   3.848   1.291  0.0140 -0.2906 -0.4776
 2056TIP3    H121835   2.296   3.851   1.278 -0.0504 -1.6785 -1.7142
 2056TIP3    H221836   2.170   3.933   1.262  1.0167  0.8748  1.6927
 2057TIP3   OH221837   0.661   3.683   0.529 -1.0634  0.3465 -0.2788
 2057TIP3    H121838   0.619   3.738   0.595 -1.4241 -0.5367  0.2522
 2057TIP3    H221839   0.679   3.742   0.456 -1.0418  1.2497  0.4417
 2058TIP3   OH221840   5.364   0.621   0.175  0.1582 -0.0398 -0.1709
 2058TIP3    H121841   5.398   0.575   0.099 -0.3498 -0.7098 -0.0053
 2058TIP3    H221842   5.300   0.683   0.139  1.3177  1.0379 -0.4558
 2059TIP3   OH221843   4.491   1.082   1.606 -0.0475  0.8674  0.3960
 2059TIP3    H121844   4.505   1.166   1.562 -2.1018  0.5391 -0.9968
 2059TIP3    H221845   4.505   1.016   1.538  2.9419 -0.1358  1.7661
 2060TIP3   OH221846   3.023   2.442   0.372 -0.2656 -0.0619  0.0852
 2060TIP3    H121847   3.109   2.411   0.401  0.1484  1.4006  0.4719
 2060TIP3    H221848   3.026   2.537   0.383 -2.1891 -0.0415  0.7657
 2061TIP3   OH221849   3.874   1.262   1.887  0.1287 -0.2777 -0.3330
 2061TIP3    H121850   3.902   1.173   1.905  1.5125  0.3158  0.6155
 2061TIP3    H221851   3.779   1.260   1.899  0.2371 -1.4396  0.4970
 2062TIP3   OH221852   3.324   1.276   0.076  0.4495 -0.1899  0.2319
 2062TIP3    H121853   3.387   1.340   0.108  2.0509 -1.4712 -0.2171
 2062TIP3    H221854   3.364   1.240  -0.003 -0.9075 -0.9725 -0.1370
 2063TIP3   OH221855   5.927   4.182   1.199 -0.8108  0.4770  0.0905
 2063TIP3    H121856   5.850   4.135   1.168 -1.3652  1.7642 -0.5423
 2063TIP3    H221857   5.974   4.208   1.119 -0.0012  0.1884  0.4543
 2064TIP3   OH221858   3.797   1.856   1.661  0.2807  1.0397  0.1350
 2064TIP3    H121859   3.724   1.796   1.672  0.9126  0.0364 -0.9059
 2064TIP3    H221860   3.858   1.833   1.732 -0.1624  1.5292  0.6869
 2065TIP3   OH221861   1.911   5.627   1.388  0.5828  0.1849  0.3748
 2065TIP3    H121862   1.843   5.632   1.321  0.3411 -0.0334  0.5981
 2065TIP3    H221863   1.899   5.707   1.440 -2.4085 -1.7658  3.1241
 2066TIP3   OH221864   1.357   2.651   7.273  0.5209 -0.4885 -0.2378
 2066TIP3    H121865   1.334   2.740   7.301 -0.8636 -1.1946  0.9531
 2066TIP3    H221866   1.419   2.621   7.339  0.7608 -0.5414 -0.4812
 2067TIP3   OH221867   3.954   2.344   1.187 -0.4191  0.6417  0.1453
 2067TIP3    H121868   3.986   2.254   1.194 -1.5203  0.3009  1.1848
 2067TIP3    H221869   3.907   2.359   1.269 -1.7717  1.5583 -0.7606
 2068TIP3   OH221870   5.232   1.427   0.620 -0.2229  0.2730  0.5499
 2068TIP3    H121871   5.317   1.443   0.661 -0.8098 -0.7267  2.2835
 2068TIP3    H221872   5.190   1.512   0.617  1.3464  1.0629 -1.6875
 2069TIP3   OH221873   1.542   5.862   0.892 -0.4517  0.7577  0.2378
 2069TIP3    H121874   1.619   5.905   0.855 -1.2959  0.0258 -2.5752
 2069TIP3    H221875   1.566   5.769   0.897 -0.6762  0.7221  0.7037
 2070TIP3   OH221876   1.565   5.318   1.115  0.1080 -0.0798  0.6850
 2070TIP3    H121877   1.502   5.285   1.178 -1.7702 -1.7396 -1.8400
 2070TIP3    H221878   1.527   5.401   1.084 -0.0027 -0.2524  0.3512
 2071TIP3   OH221879   3.086   2.648   1.213 -0.4861 -0.3869 -0.0260
 2071TIP3    H121880   3.129   2.697   1.144  0.3091  0.5688  1.1063
 2071TIP3    H221881   3.069   2.713   1.282  0.1125 -1.5664  1.2947
 2072TIP3   OH221882   5.892   4.021   6.644 -0.1855  0.0715  0.0271
 2072TIP3    H121883   5.835   4.070   6.586  0.9187  0.9317 -0.3686
 2072TIP3    H221884   5.917   4.084   6.712 -0.7999 -0.6839  0.9804
 2073TIP3   OH221885   4.437   2.816   7.323  0.4271 -0.4745  0.2053
 2073TIP3    H121886   4.502   2.794   7.257  1.0205 -1.4288  1.0650
 2073TIP3    H221887   4.356   2.779   7.290  0.1870  1.0735 -1.0705
 2074TIP3   OH221888   1.406   5.383   0.358  0.4614  0.2020  0.4207
 2074TIP3    H121889   1.324   5.428   0.341 -0.8680 -2.1089  0.3694
 2074TIP3    H221890   1.468   5.422   0.297 -1.1159  0.5968 -1.0014
 2075TIP3   OH221891   0.780   1.734   0.807 -0.3492 -0.1153 -0.4034
 2075TIP3    H121892   0.705   1.777   0.765 -0.2367 -1.3654 -1.9945
 2075TIP3    H221893   0.824   1.688   0.736  2.5525  1.3965  0.3066
 2076TIP3   OH221894   2.216   5.794   1.281 -0.0203 -0.2196  0.1853
 2076TIP3    H121895   2.245   5.703   1.283  0.1021 -0.2099  2.4797
 2076TIP3    H221896   2.195   5.814   1.373 -0.3926  1.9518 -0.3121
 2077TIP3   OH221897   4.997   0.750   0.761  0.6854 -0.0838  0.9179
 2077TIP3    H121898   5.055   0.822   0.786 -1.0875  1.7280  0.1041
 2077TIP3    H221899   4.942   0.787   0.692 -0.4135 -2.2010  0.5818
 2078TIP3   OH221900   2.988   1.934   2.056 -0.0832 -0.1556 -0.0347
 2078TIP3    H121901   3.073   1.922   2.098 -0.4898  0.1062  0.8872
 2078TIP3    H221902   3.009   1.961   1.966  0.8011 -0.1013  0.1807
 2079TIP3   OH221903   4.440   3.115   0.566 -0.3882 -0.0387  0.6453
 2079TIP3    H121904   4.408   3.052   0.630  0.3940 -0.2890  0.8071
 2079TIP3    H221905   4.431   3.070   0.482 -1.0433  0.1363  0.6193
 2080TIP3   OH221906   1.318   0.972   1.870 -0.2042  0.3339 -0.2298
 2080TIP3    H121907   1.293   0.982   1.778  0.1747  2.5232 -0.1422
 2080TIP3    H221908   1.249   1.017   1.918 -0.0023 -0.1634  0.5401
 2081TIP3   OH221909   5.251   4.265   1.377 -0.6220 -0.3887 -0.4864
 2081TIP3    H121910   5.173   4.293   1.426 -0.6726 -1.0945 -0.1364
 2081TIP3    H221911   5.296   4.346   1.353  0.6193  0.0233  2.7069
 2082TIP3   OH221912   4.724   2.892   1.708 -0.1083  0.0770 -0.9139
 2082TIP3    H121913   4.664   2.963   1.683 -0.2097  1.4925  2.6803
 2082TIP3    H221914   4.751   2.852   1.625 -2.2224  2.5245 -2.9424
 2083TIP3   OH221915   0.536   1.439   7.166  0.6199  0.3169  0.4267
 2083TIP3    H121916   0.548   1.469   7.256 -0.7976 -0.0531  0.7600
 2083TIP3    H221917   0.452   1.477   7.139  0.5215 -0.4408 -0.3647
 2084TIP3   OH221918   3.601   5.908   6.676  0.2223 -0.6058  0.1070
 2084TIP3    H121919   3.609   5.928   6.583  1.3869  1.3240  0.5613
 2084TIP3    H221920   3.688   5.878   6.702  0.4474  0.6547  0.9148
 2085TIP3   OH221921   3.963   5.637   7.026 -0.3888  0.2893  0.2682
 2085TIP3    H121922   4.046   5.590   7.030  0.6026  1.8856 -0.6289
 2085TIP3    H221923   3.988   5.729   7.022 -2.2771  1.0596  3.1222
 2086TIP3   OH221924   5.135   0.463   1.368  0.0713 -0.4430 -0.0045
 2086TIP3    H121925   5.174   0.497   1.288 -0.2047 -1.4413 -0.5813
 2086TIP3    H221926   5.205   0.467   1.433  0.5990 -0.5475 -0.5583
 2087TIP3   OH221927   5.901   4.208   0.420  0.3337 -0.1133  0.0558
 2087TIP3    H121928   5.906   4.136   0.482  0.6375 -0.1688 -0.0303
 2087TIP3    H221929   5.991   4.239   0.411 -0.1421  2.4654  2.6443
 2088TIP3   OH221930   4.592   2.335   6.939 -0.1519  0.2403 -0.2864
 2088TIP3    H121931   4.684   2.350   6.918  0.5054 -3.5750 -0.8373
 2088TIP3    H221932   4.580   2.373   7.026  2.0443  0.5195 -0.0658
 2089TIP3   OH221933   1.536   2.353   0.688 -0.1786 -0.3478 -0.0576
 2089TIP3    H121934   1.457   2.354   0.741  0.2017 -0.2577  0.5212
 2089TIP3    H221935   1.607   2.340   0.751  0.3030  0.0043 -0.5178
 2090TIP3   OH221936   0.682   4.627   6.071 -0.3782 -0.0092 -0.7949
 2090TIP3    H121937   0.627   4.704   6.087  0.6824  0.3955  1.2819
 2090TIP3    H221938   0.765   4.663   6.041  0.0865 -0.3347  0.0707
 2091TIP3   OH221939   2.920   4.054   2.659 -0.2735  0.1794 -0.2031
 2091TIP3    H121940   2.975   3.978   2.640  1.4075  1.2913 -0.0671
 2091TIP3    H221941   2.838   4.018   2.692  0.7858 -1.5658  0.6575
 2092TIP3   OH221942   2.085   4.357   1.034 -0.4253  0.2179 -0.5847
 2092TIP3    H121943   2.070   4.347   1.128  1.1872  0.9121 -0.2205
 2092TIP3    H221944   2.057   4.273   0.997 -1.5083  0.0965  0.4343
 2093TIP3   OH221945   3.382   5.957   0.043  0.1812 -0.0507 -0.6398
 2093TIP3    H121946   3.367   5.944   0.136  0.3201  1.5721 -0.3661
 2093TIP3    H221947   3.301   5.927   0.001  0.4404 -1.5978 -0.0999
 2094TIP3   OH221948   5.184   1.491   7.205 -0.3073 -0.6983  0.3918
 2094TIP3    H121949   5.193   1.497   7.110  0.9572 -2.0920  0.3965
 2094TIP3    H221950   5.145   1.405   7.220 -0.6781 -0.4039  1.1336
 2095TIP3   OH221951   0.753   4.226   1.110  0.4075 -0.4800  0.0617
 2095TIP3    H121952   0.841   4.220   1.072  0.4235 -1.4564  0.2305
 2095TIP3    H221953   0.763   4.193   1.199 -0.1329 -0.5684  0.0928
 2096TIP3   OH221954   0.044   4.337   0.021 -0.2886 -0.2586  0.3431
 2096TIP3    H121955   0.074   4.286   0.097  1.8451  2.1126  1.2598
 2096TIP3    H221956   0.022   4.272  -0.045  1.4130 -2.3672  1.7279
 2097TIP3   OH221957   4.786   5.195   6.362 -0.4891 -0.0274 -0.5228
 2097TIP3    H121958   4.714   5.248   6.329 -2.4376 -1.1593  1.5874
 2097TIP3    H221959   4.798   5.127   6.296 -1.7266 -0.1295 -0.6649
 2098TIP3   OH221960   0.597   1.582   6.370  0.5345  0.4565  0.2423
 2098TIP3    H121961   0.690   1.579   6.392  0.7224  0.9079 -0.4934
 2098TIP3    H221962   0.592   1.631   6.288 -0.2848 -0.1843 -0.1083
 2099TIP3   OH221963   0.419   3.110   6.584  0.3312  0.3086 -0.1501
 2099TIP3    H121964   0.512   3.093   6.603  0.7002 -2.1094 -3.1354
 2099TIP3    H221965   0.372   3.072   6.657  1.6843 -1.6147 -0.2046
 2100TIP3   OH221966   4.227   1.817   1.830  0.0913  0.3083 -0.0031
 2100TIP3    H121967   4.242   1.813   1.735  0.1188  1.6418 -0.0725
 2100TIP3    H221968   4.306   1.859   1.865  0.5763 -1.1769  0.7629
 2101TIP3   OH221969   0.931   3.660   1.765  0.1591  0.0303  0.4426
 2101TIP3    H121970   1.005   3.713   1.796  0.7307  0.5109 -1.5775
 2101TIP3    H221971   0.960   3.569   1.779 -0.2571  0.1775  2.6417
 2102TIP3   OH221972   2.700   5.077   6.547 -0.2837 -0.2012 -0.0476
 2102TIP3    H121973   2.736   5.136   6.481 -1.5811 -0.2773 -0.8611
 2102TIP3    H221974   2.753   5.092   6.625  1.2724 -0.0982 -1.0959
 2103TIP3   OH221975   4.230   4.715   0.782 -0.6176 -0.0808 -0.8664
 2103TIP3    H121976   4.315   4.684   0.753  0.1272  1.2747 -0.2579
 2103TIP3    H221977   4.196   4.644   0.836  0.6473 -0.2023 -0.1821
 2104TIP3   OH221978   1.048   4.533   6.090 -0.0669 -0.0807 -0.4685
 2104TIP3    H121979   0.990   4.596   6.048 -1.3798 -0.6586  0.4051
 2104TIP3    H221980   1.007   4.448   6.075 -0.9519 -0.2666  2.4435
 2105TIP3   OH221981   2.742   3.161   1.906  0.2102  0.2051  0.0999
 2105TIP3    H121982   2.676   3.175   1.974 -1.4868 -1.1392 -1.1682
 2105TIP3    H221983   2.705   3.092   1.851  2.1120  0.3263 -1.4387
 2106TIP3   OH221984   5.032   3.111   1.250  0.1635 -0.0223 -0.2461
 2106TIP3    H121985   4.988   3.026   1.246  1.8120 -0.8823 -1.4275
 2106TIP3    H221986   4.992   3.163   1.180 -0.5144  0.0196  0.1648
 2107TIP3   OH221987   2.432   4.911   0.475  0.1774  0.2716  0.1468
 2107TIP3    H121988   2.516   4.954   0.456  0.2147 -0.4439 -1.4244
 2107TIP3    H221989   2.404   4.874   0.392 -1.7779  0.5750  0.6218
 2108TIP3   OH221990   0.613   5.282   5.893  0.3204 -0.0943  0.1972
 2108TIP3    H121991   0.606   5.377   5.881  0.8597  0.4440  3.3310
 2108TIP3    H221992   0.529   5.248   5.862 -1.0360  1.7631  1.5544
 2109TIP3   OH221993   1.241   3.488   6.497  0.0148  0.4618 -0.2995
 2109TIP3    H121994   1.187   3.429   6.445 -1.1158  2.0538 -1.0214
 2109TIP3    H221995   1.188   3.508   6.574  0.6775  0.0227  0.2855
 2110TIP3   OH221996   1.778   3.082   6.164 -0.3565  0.6457  0.0992
 2110TIP3    H121997   1.868   3.052   6.176 -0.3252 -2.6454 -5.1430
 2110TIP3    H221998   1.785   3.155   6.102 -1.2904  0.4368 -0.2688
 2111TIP3   OH221999   5.922   2.799   6.844 -0.2606 -0.0020  0.3894
 2111TIP3    H122000   5.891   2.721   6.798  1.1433  0.1334 -0.8521
 2111TIP3    H222001   5.962   2.765   6.924 -0.6065 -0.4620  0.3719
 2112TIP3   OH222002   5.208   4.507   7.447 -0.1192  0.1967  0.3863
 2112TIP3    H122003   5.231   4.440   7.383  0.3435  1.1763 -0.5251
 2112TIP3    H222004   5.268   4.493   7.520  0.1593 -0.2130  0.0805
 2113TIP3   OH222005   0.595   4.374   0.228 -0.1018 -0.0615 -0.2521
 2113TIP3    H122006   0.536   4.332   0.291  0.4955 -0.3078  0.1609
 2113TIP3    H222007   0.571   4.336   0.144 -0.3413 -0.3752 -0.0443
 2114TIP3   OH222008   4.987   2.834   1.458 -0.1644  0.3756  0.1941
 2114TIP3    H122009   5.004   2.753   1.504  2.0855  0.1767 -0.8815
 2114TIP3    H222010   4.929   2.809   1.386 -1.7288  0.2701  1.4425
 2115TIP3   OH222011   2.210   4.216   0.444  0.5237 -0.6981  0.2411
 2115TIP3    H122012   2.219   4.157   0.370 -1.9957 -1.1652  0.2175
 2115TIP3    H222013   2.236   4.302   0.410 -0.0434 -1.0099 -1.0318
 2116TIP3   OH222014   2.179   1.129   0.294 -0.4428 -0.5198 -0.7616
 2116TIP3    H122015   2.248   1.072   0.328 -1.5144 -1.7718 -0.6138
 2116TIP3    H222016   2.099   1.077   0.303 -1.2857  0.5854 -1.7001
 2117TIP3   OH222017   0.991   2.262   1.711 -0.0361  0.2947 -0.3282
 2117TIP3    H122018   0.953   2.181   1.679 -0.7428  0.4032  0.2219
 2117TIP3    H222019   1.031   2.239   1.795  1.3450  0.1272 -1.0087
 2118TIP3   OH222020   3.550   2.090   6.811  0.0820  0.5577 -0.1226
 2118TIP3    H122021   3.508   2.169   6.778  1.5389  2.2069  1.6852
 2118TIP3    H222022   3.596   2.054   6.736 -2.2544  0.2081 -1.4720
 2119TIP3   OH222023   2.304   1.703   1.539 -0.0030 -0.3340 -0.0343
 2119TIP3    H122024   2.314   1.733   1.449  1.0265 -0.1686  0.1264
 2119TIP3    H222025   2.209   1.689   1.549  0.0493 -2.3341 -1.7580
 2120TIP3   OH222026   1.545   3.485   0.700 -0.3887 -0.2029  0.2960
 2120TIP3    H122027   1.515   3.466   0.789 -0.6614  1.2958  0.5591
 2120TIP3    H222028   1.486   3.437   0.643  0.4351 -2.0397  0.9162
 2121TIP3   OH222029   5.574   2.896   7.489  0.0519  0.2021  0.6277
 2121TIP3    H122030   5.597   2.926   7.401 -1.6001  0.7190  0.3461
 2121TIP3    H222031   5.645   2.928   7.545  0.9353  0.1655 -0.4526
 2122TIP3   OH222032   0.358   4.469   0.035  0.0813 -0.3345  0.3175
 2122TIP3    H122033   0.444   4.448   0.000 -0.3773 -1.0760 -0.4197
 2122TIP3    H222034   0.330   4.388   0.079  0.4826  0.4521  2.1152
 2123TIP3   OH222035   5.838   5.330   5.910  0.3636  0.2362  0.1248
 2123TIP3    H122036   5.805   5.420   5.904 -1.3944 -0.3184  0.8063
 2123TIP3    H222037   5.761   5.275   5.896  1.6009 -1.2169 -1.4435
 2124TIP3   OH222038   2.959   2.943   1.603 -0.1648 -0.0801  0.4271
 2124TIP3    H122039   3.012   2.899   1.537 -1.6486 -0.6159 -0.4726
 2124TIP3    H222040   2.967   3.036   1.582 -0.1953 -0.2094 -0.1930
 2125TIP3   OH222041   4.719   1.592   6.846 -0.4128  0.4359  0.4704
 2125TIP3    H122042   4.707   1.649   6.770  0.3961 -2.3579 -1.9454
 2125TIP3    H222043   4.668   1.514   6.825  0.0888 -0.5521  2.6926
 2126TIP3   OH222044   2.606   0.176   1.498  0.2098 -0.3585 -0.2076
 2126TIP3    H122045   2.686   0.225   1.482  1.6594 -2.3858  0.3746
 2126TIP3    H222046   2.570   0.159   1.411  0.6367  0.2024 -0.5001
 2127TIP3   OH222047   0.547   4.184   7.442  0.5160 -0.6782 -0.1091
 2127TIP3    H122048   0.578   4.127   7.512  0.0661 -1.2150 -0.3363
 2127TIP3    H222049   0.589   4.150   7.363 -0.5974 -1.3982 -0.4137
 2128TIP3   OH222050   1.340   5.092   1.938 -0.0530  0.5448 -0.6566
 2128TIP3    H122051   1.273   5.133   1.993  1.1044  0.4046  0.9286
 2128TIP3    H222052   1.311   5.001   1.928  0.3008  0.2677  0.7134
 2129TIP3   OH222053   5.888   5.472   7.141  0.5078  0.0992 -0.1887
 2129TIP3    H122054   5.863   5.382   7.122 -0.3631  0.4994 -1.0688
 2129TIP3    H222055   5.941   5.467   7.220  0.5173 -1.1861 -0.2643
 2130TIP3   OH222056   3.574   3.191   1.086  0.3312 -0.3104 -0.1732
 2130TIP3    H122057   3.529   3.175   1.169 -0.8597 -1.8488 -1.0647
 2130TIP3    H222058   3.640   3.121   1.081 -0.5506 -1.0998 -1.1457
 2131TIP3   OH222059   2.064   0.384   2.707 -0.1063  0.7851 -0.1033
 2131TIP3    H122060   2.053   0.363   2.800 -1.1500  0.4196 -0.2858
 2131TIP3    H222061   2.083   0.299   2.666 -0.2083  0.8524 -0.2913
 2132TIP3   OH222062   5.041   1.441   6.629 -0.3534  0.4896 -0.0827
 2132TIP3    H122063   5.060   1.532   6.651 -0.4208  0.2627  0.9907
 2132TIP3    H222064   4.945   1.437   6.626 -0.3411  0.8017 -1.7656
 2133TIP3   OH222065   4.802   5.960   2.567 -0.0462  0.5969 -0.4802
 2133TIP3    H122066   4.887   5.993   2.540  0.1317  1.0045  0.5096
 2133TIP3    H222067   4.781   5.891   2.504  2.3513 -1.5499  0.8490
 2134TIP3   OH222068   4.397   3.047   0.272 -0.1721 -0.2765 -0.4052
 2134TIP3    H122069   4.310   3.085   0.276 -0.8697 -1.8231 -0.2396
 2134TIP3    H222070   4.385   2.961   0.231  1.1458 -0.8540  0.3364
 2135TIP3   OH222071   4.139   4.481   2.382 -0.3738  0.5843 -0.4370
 2135TIP3    H122072   4.226   4.514   2.362 -0.4204  2.1949  1.6559
 2135TIP3    H222073   4.155   4.401   2.434 -0.1118  1.1114  0.3091
 2136TIP3   OH222074   4.735   5.704   6.963 -0.0238 -0.0230 -0.1275
 2136TIP3    H122075   4.706   5.613   6.974  1.2998 -0.4231  0.2820
 2136TIP3    H222076   4.692   5.733   6.883 -0.8884 -0.8330  0.0174
 2137TIP3   OH222077   1.053   5.704   6.984 -0.4675  0.1666 -0.1598
 2137TIP3    H122078   1.088   5.693   6.896 -0.0198  0.4531 -0.0174
 2137TIP3    H222079   1.121   5.752   7.032 -1.3472  1.3829 -0.0862
 2138TIP3   OH222080   0.042   1.723   2.229  0.3292  0.1878 -0.2870
 2138TIP3    H122081   0.125   1.720   2.276 -0.1434  0.5658  0.5955
 2138TIP3    H222082   0.061   1.769   2.148  1.5907 -2.0952 -1.3982
 2139TIP3   OH222083   0.305   2.217   1.397 -0.3378  0.3810  0.2853
 2139TIP3    H122084   0.225   2.262   1.421  0.3048  1.7046  0.0286
 2139TIP3    H222085   0.357   2.283   1.351  0.0567 -0.9915 -1.3594
 2140TIP3   OH222086   2.621   5.083   6.161  0.2517  0.3484  0.1154
 2140TIP3    H122087   2.565   5.140   6.108 -0.9328  0.3959  1.3486
 2140TIP3    H222088   2.670   5.143   6.218  1.7391  0.3170 -1.0682
 2141TIP3   OH222089   6.263   0.993   6.182 -0.6996  0.0313  0.7790
 2141TIP3    H122090   6.174   1.016   6.156 -0.6660  0.2463  0.8559
 2141TIP3    H222091   6.266   1.008   6.276 -0.7097 -0.3911  0.8499
 2142TIP3   OH222092   4.683   4.926   1.038  0.4601  0.8687  0.0482
 2142TIP3    H122093   4.761   4.954   0.990  1.0243  1.0540  1.0462
 2142TIP3    H222094   4.706   4.839   1.071  0.0233  0.6820 -0.1383
 2143TIP3   OH222095   1.466   2.532   0.122 -0.0264 -0.1185  0.3475
 2143TIP3    H122096   1.542   2.578   0.087  0.4824 -0.7016  0.6556
 2143TIP3    H222097   1.412   2.601   0.161  0.2010  0.3345 -0.1166
 2144TIP3   OH222098   4.860   2.480   1.674 -0.2570  0.4774  0.2355
 2144TIP3    H122099   4.941   2.515   1.638  0.0548  0.2930  0.7497
 2144TIP3    H222100   4.792   2.541   1.645 -0.0944  0.0696 -1.0868
 2145TIP3   OH222101   3.940   5.893   2.020 -0.5545  0.0134  0.1781
 2145TIP3    H122102   3.945   5.802   2.050  0.6363 -0.4050 -1.1621
 2145TIP3    H222103   4.029   5.926   2.031 -0.7092  0.6403 -0.4138
 2146TIP3   OH222104   3.086   2.287   7.519 -0.2123  0.3021  0.4586
 2146TIP3    H122105   2.999   2.275   7.556  0.5971 -0.6193  2.1872
 2146TIP3    H222106   3.146   2.254   7.586  1.4546  0.4034 -0.8985
 2147TIP3   OH222107   2.077   0.705   1.034 -0.1274 -0.1327 -0.7730
 2147TIP3    H122108   1.985   0.724   1.013 -0.1811  0.4449 -0.0456
 2147TIP3    H222109   2.093   0.752   1.116  0.6530 -0.7064 -0.5880
 2148TIP3   OH222110   1.471   4.847   7.631  0.1824 -0.0748 -0.4356
 2148TIP3    H122111   1.542   4.888   7.583 -0.8168 -0.7406 -2.6116
 2148TIP3    H222112   1.396   4.906   7.619 -0.5266 -1.0868 -1.2021
 2149TIP3   OH222113   6.151   2.867   6.321  0.1320 -0.1632 -0.1431
 2149TIP3    H122114   6.119   2.878   6.231 -0.4510  2.5431  0.3056
 2149TIP3    H222115   6.079   2.823   6.366 -0.0405 -0.5020 -0.7366
 2150TIP3   OH222116   0.241   0.622   2.589  0.2087  0.7262 -0.4523
 2150TIP3    H122117   0.192   0.542   2.608  1.3040  0.1551  0.0523
 2150TIP3    H222118   0.295   0.600   2.513  0.5728  0.9506 -0.2653
 2151TIP3   OH222119   4.867   4.915   1.671  0.2509  0.3636  0.2028
 2151TIP3    H122120   4.947   4.907   1.620  0.0868  2.0028 -0.3500
 2151TIP3    H222121   4.897   4.936   1.760  0.4499  0.6111  0.0786
 2152TIP3   OH222122   4.891   6.101   0.115  0.0518  0.2896 -0.1259
 2152TIP3    H122123   4.981   6.110   0.085  0.2208 -0.4534  0.1314
 2152TIP3    H222124   4.876   6.006   0.116 -0.5975  0.3941  0.2263
 2153TIP3   OH222125   4.121   2.399   1.443  0.3446  0.8539 -0.4163
 2153TIP3    H122126   4.162   2.370   1.525 -0.8442 -0.4480 -0.2588
 2153TIP3    H222127   4.030   2.370   1.450  0.4220 -0.0273 -2.5471
 2154TIP3   OH222128   2.291   4.338   1.828  0.2227 -0.0343  0.1350
 2154TIP3    H122129   2.338   4.300   1.902 -0.6360  0.6951  1.0775
 2154TIP3    H222130   2.353   4.400   1.790  0.2405  0.5042  1.0123
 2155TIP3   OH222131   0.006   5.852   6.612 -0.3930  0.7571 -0.1167
 2155TIP3    H122132   0.082   5.812   6.570 -0.2915 -0.1915  0.9158
 2155TIP3    H222133   0.017   5.946   6.598  0.9525  0.6337 -0.0238
 2156TIP3   OH222134   4.622   1.344   1.509 -0.3608 -0.1008  0.1164
 2156TIP3    H122135   4.606   1.399   1.586  0.1833 -1.4445  1.2209
 2156TIP3    H222136   4.713   1.315   1.519 -0.4816 -0.7929 -0.7114
 2157TIP3   OH222137   2.337   3.966   0.674 -0.0916  0.2392  0.0520
 2157TIP3    H122138   2.275   3.941   0.742  0.4252  1.2057  0.9105
 2157TIP3    H222139   2.369   3.883   0.639  0.4333 -0.3017  1.7352
 2158TIP3   OH222140   3.054   5.585   6.019  0.4202 -0.4527 -0.3681
 2158TIP3    H122141   3.135   5.535   6.007  0.9796  0.0900  0.9551
 2158TIP3    H222142   3.083   5.676   6.018 -0.3204 -0.2151 -0.7699
 2159TIP3   OH222143   2.008   5.521   0.268 -0.6180  0.3476 -0.5426
 2159TIP3    H122144   1.974   5.440   0.229 -0.2245  1.1168 -2.6550
 2159TIP3    H222145   2.050   5.567   0.194  0.6119  1.7199  0.9393
 2160TIP3   OH222146   2.547   5.274   1.164 -0.4215  0.2093  0.6414
 2160TIP3    H122147   2.617   5.339   1.175 -1.0623  1.0204  0.0519
 2160TIP3    H222148   2.590   5.199   1.124 -0.2083  1.4063 -1.5203
 2161TIP3   OH222149   3.616   4.881   0.447 -0.7291 -0.1108 -0.5926
 2161TIP3    H122150   3.686   4.834   0.402 -0.2695  0.7904 -0.8425
 2161TIP3    H222151   3.587   4.821   0.516 -0.4354 -0.9160 -1.1575
 2162TIP3   OH222152   3.712   5.880   6.036 -0.1378 -0.1910  0.3020
 2162TIP3    H122153   3.643   5.862   5.972  0.6910  0.3176 -0.7550
 2162TIP3    H222154   3.703   5.974   6.054  0.9379  0.1206 -0.6659
 2163TIP3   OH222155   0.271   5.991   0.414  0.2690  0.1670 -0.2522
 2163TIP3    H122156   0.367   5.984   0.418  0.1302 -1.4917  0.8614
 2163TIP3    H222157   0.241   5.903   0.392 -1.0131  0.6693 -0.5907
 2164TIP3   OH222158   0.725   2.952   1.205  0.2493  0.0064 -0.0875
 2164TIP3    H122159   0.652   2.949   1.143  1.0804  0.9360 -1.1313
 2164TIP3    H222160   0.769   3.034   1.187  1.9240 -0.8046  0.1367
 2165TIP3   OH222161   4.691   5.639   7.703 -0.6147  0.1453  0.4067
 2165TIP3    H122162   4.673   5.552   7.739  0.4027 -0.4361 -0.4366
 2165TIP3    H222163   4.610   5.689   7.718 -0.6498 -0.4179  2.4000
 2166TIP3   OH222164   0.853   3.679   6.992 -0.3613  0.0922  0.4699
 2166TIP3    H122165   0.760   3.692   6.973 -0.2413 -0.0261 -0.2426
 2166TIP3    H222166   0.856   3.652   7.083 -1.4141 -3.8934 -0.4718
 2167TIP3   OH222167   1.910   2.402   1.564 -0.1788  0.0165 -0.5170
 2167TIP3    H122168   1.933   2.488   1.529 -1.0542 -0.3115 -1.9778
 2167TIP3    H222169   1.819   2.389   1.539 -0.1740 -1.1828  0.0197
 2168TIP3   OH222170   4.311   2.860   1.375  0.3250 -0.0220 -0.4733
 2168TIP3    H122171   4.296   2.769   1.352 -1.5420  0.5011 -1.5939
 2168TIP3    H222172   4.255   2.910   1.315  0.1729  1.7771  1.0385
 2169TIP3   OH222173   0.850   2.749   1.372 -0.2100 -0.0427 -0.1136
 2169TIP3    H122174   0.818   2.825   1.323  0.6844  0.8698  0.6524
 2169TIP3    H222175   0.773   2.717   1.419 -0.9524 -0.6066 -1.6606
 2170TIP3   OH222176   0.406   0.881   0.360  0.6282 -0.3458  0.3585
 2170TIP3    H122177   0.311   0.896   0.364  0.4580 -1.5285  2.4532
 2170TIP3    H222178   0.427   0.889   0.267 -1.6358 -0.6583 -0.2587
 2171TIP3   OH222179   5.113   1.357   0.867  0.1602 -0.0566 -0.6469
 2171TIP3    H122180   5.164   1.287   0.908 -2.1980 -1.3921  0.1745
 2171TIP3    H222181   5.169   1.389   0.796  2.1978 -1.2533  0.3235
 2172TIP3   OH222182   1.434   4.881   1.046  0.5841  0.1190  0.2659
 2172TIP3    H122183   1.504   4.941   1.072  1.1875 -0.0236 -0.9828
 2172TIP3    H222184   1.480   4.801   1.017 -0.1353 -0.3169  0.3069
 2173TIP3   OH222185   3.186   2.615   7.415  0.3069 -0.0574  0.1842
 2173TIP3    H122186   3.190   2.710   7.427  0.4787 -0.2552  1.9729
 2173TIP3    H222187   3.243   2.598   7.340  0.5449  1.2125  0.0546
 2174TIP3   OH222188   3.171   3.386   0.250 -0.3354  0.0184  0.0781
 2174TIP3    H122189   3.154   3.347   0.335  0.5256  0.3479  0.4131
 2174TIP3    H222190   3.208   3.315   0.197 -2.2935 -0.6010 -0.5366
 2175TIP3   OH222191   4.104   0.550   7.560 -0.0402 -0.3273 -0.0473
 2175TIP3    H122192   4.109   0.462   7.597  0.8732 -0.5756 -0.7021
 2175TIP3    H222193   4.090   0.536   7.466 -0.3568  0.2326 -0.0897
 2176TIP3   OH222194   3.490   2.491   0.373 -0.3759  0.6686  0.1283
 2176TIP3    H122195   3.417   2.434   0.395 -0.1444  0.3684  0.1275
 2176TIP3    H222196   3.562   2.461   0.429  0.3951 -0.4757 -1.4020
 2177TIP3   OH222197   1.599   1.810   1.671 -0.3763 -0.5322 -0.4073
 2177TIP3    H122198   1.515   1.851   1.688  0.6045  1.3977  0.0571
 2177TIP3    H222199   1.656   1.842   1.740  0.8849 -1.3991 -0.9961
 2178TIP3   OH222200   0.151   3.254   1.282  0.3360  0.0960  0.1683
 2178TIP3    H122201   0.192   3.281   1.365  1.5496  1.7950 -0.9172
 2178TIP3    H222202   0.220   3.205   1.237 -0.4359 -1.1264  0.2672
 2179TIP3   OH222203   1.826   3.553   7.703  0.0525  0.5922 -0.1991
 2179TIP3    H122204   1.863   3.637   7.675  1.0040  0.7786  1.4647
 2179TIP3    H222205   1.732   3.564   7.695  0.2343  1.1262 -1.8475
 2180TIP3   OH222206   1.489   0.618   0.136  0.1792 -0.4739  0.0868
 2180TIP3    H122207   1.479   0.626   0.231 -0.8107 -1.1325  0.0642
 2180TIP3    H222208   1.553   0.548   0.125 -1.4449 -2.0910  0.3170
 2181TIP3   OH222209   1.471   4.469   1.196 -0.0718  0.2749 -0.4110
 2181TIP3    H122210   1.541   4.464   1.261  0.1996  1.0115 -0.6412
 2181TIP3    H222211   1.516   4.492   1.115 -0.6569  1.4047 -0.4253
 2182TIP3   OH222212   5.716   1.731   2.107 -0.4531 -0.0869  0.1462
 2182TIP3    H122213   5.633   1.779   2.102 -0.7012 -0.4760  0.4087
 2182TIP3    H222214   5.710   1.683   2.190  0.7783  1.2337  1.0446
 2183TIP3   OH222215   0.828   2.653   2.789 -0.0344  0.4193 -0.3399
 2183TIP3    H122216   0.739   2.619   2.779  0.5109 -0.7671 -1.4004
 2183TIP3    H222217   0.828   2.734   2.738 -0.0768 -0.4172 -1.7047
 2184TIP3   OH222218   0.805   5.426   7.594 -0.2294  0.3643  0.3123
 2184TIP3    H122219   0.758   5.481   7.531 -0.4799  0.3613  0.4939
 2184TIP3    H222220   0.858   5.488   7.644  1.3535  0.1885 -1.0622
 2185TIP3   OH222221   4.914   1.187   1.442 -0.3036 -0.1298  0.0808
 2185TIP3    H122222   4.988   1.157   1.389 -0.1915 -1.2199  0.8254
 2185TIP3    H222223   4.925   1.143   1.526 -2.7007 -1.6679 -0.3268
 2186TIP3   OH222224   3.054   1.890   1.551  0.6543  0.1487  0.0418
 2186TIP3    H122225   3.054   1.982   1.522  2.4794  0.0531 -0.3646
 2186TIP3    H222226   2.964   1.861   1.536  0.0007  1.8854  0.2590
 2187TIP3   OH222227   0.542   3.618   5.773 -0.1064 -0.3715  0.4637
 2187TIP3    H122228   0.572   3.584   5.857 -1.7915 -0.8241  0.9210
 2187TIP3    H222229   0.447   3.625   5.783 -0.4228 -1.0660 -1.6155
 2188TIP3   OH222230   1.216   1.577   0.920  0.4630  0.1276  0.4437
 2188TIP3    H122231   1.143   1.610   0.868  0.4469  0.4006  0.6370
 2188TIP3    H222232   1.287   1.567   0.857  0.0972 -0.7026  0.1363
 2189TIP3   OH222233   5.762   5.156   1.858  0.0832  0.3773  0.2678
 2189TIP3    H122234   5.789   5.192   1.774 -1.0524  0.8242  0.0871
 2189TIP3    H222235   5.719   5.228   1.903 -1.8896 -0.6117  0.0544
 2190TIP3   OH222236   1.118   0.340   1.666  0.2003 -0.0725  0.3047
 2190TIP3    H122237   1.109   0.263   1.611 -0.2605 -0.2137  0.5688
 2190TIP3    H222238   1.031   0.380   1.665  0.7196  1.1263 -0.8149
 2191TIP3   OH222239   3.686   0.343   7.301  0.0181  0.2210  0.3347
 2191TIP3    H122240   3.694   0.437   7.315  0.4190  0.2859 -0.2417
 2191TIP3    H222241   3.665   0.335   7.208  0.7599 -0.2757  0.1974
 2192TIP3   OH222242   2.726   3.196   0.068 -0.6025 -0.4422  0.0834
 2192TIP3    H122243   2.689   3.277   0.103 -1.1454 -1.3040  1.6341
 2192TIP3    H222244   2.661   3.166   0.005 -1.2122 -0.4842  0.7106
 2193TIP3   OH222245   4.516   1.640   6.129  0.1802  0.2549 -0.9404
 2193TIP3    H122246   4.548   1.617   6.042 -1.2372 -0.6295 -1.2570
 2193TIP3    H222247   4.421   1.640   6.121 -0.0192  3.6244 -0.2438
 2194TIP3   OH222248   3.666   4.573   1.789 -0.4477 -0.6537  0.2319
 2194TIP3    H122249   3.655   4.667   1.800 -1.8212 -0.5044 -1.7794
 2194TIP3    H222250   3.576   4.539   1.785  0.0179 -2.0418  0.7072
 2195TIP3   OH222251   1.779   2.385   6.253 -0.0221 -0.1515  0.6553
 2195TIP3    H122252   1.703   2.335   6.284  0.0309 -1.1417 -0.6996
 2195TIP3    H222253   1.783   2.366   6.159  2.1708 -0.5239  0.7627
 2196TIP3   OH222254   1.184   3.388   7.515 -0.0973  0.6060 -0.3232
 2196TIP3    H122255   1.147   3.350   7.435 -0.6296  0.9212 -0.2353
 2196TIP3    H222256   1.278   3.377   7.506 -0.0970  1.3245 -1.3497
 2197TIP3   OH222257   4.731   1.011   2.382  0.0460 -0.0517 -0.4619
 2197TIP3    H122258   4.810   1.066   2.376  0.6573 -0.8689 -0.0192
 2197TIP3    H222259   4.673   1.061   2.439  1.5358 -0.9218  1.9480
 2198TIP3   OH222260   1.133   1.822   0.561 -0.3490  0.3675  0.2380
 2198TIP3    H122261   1.199   1.854   0.499  0.6082  0.0686  1.0696
 2198TIP3    H222262   1.064   1.888   0.558 -1.7418 -1.0133 -3.2331
 2199TIP3   OH222263   1.679   1.471   7.161 -0.0234  0.3586 -0.0593
 2199TIP3    H122264   1.668   1.559   7.198 -0.8456 -0.0583  0.7376
 2199TIP3    H222265   1.591   1.434   7.161  0.3393 -0.5303 -0.2176
 2200TIP3   OH222266   1.736   5.351   6.130  0.2662  0.2558  0.5974
 2200TIP3    H122267   1.667   5.408   6.094  0.5387 -0.1670 -0.6329
 2200TIP3    H222268   1.688   5.283   6.177 -0.4503 -2.0020 -3.0383
 2201TIP3   OH222269   2.856   0.859   2.176 -0.3770  0.7578  0.1713
 2201TIP3    H122270   2.824   0.772   2.150 -1.0714  1.0168  0.1536
 2201TIP3    H222271   2.917   0.883   2.106  1.0335 -0.3770  0.9548
 2202TIP3   OH222272   5.485   0.870   0.262  0.0352  0.3097 -0.0322
 2202TIP3    H122273   5.575   0.889   0.286  0.0162  0.4121 -0.0391
 2202TIP3    H222274   5.489   0.844   0.170 -0.3026  3.3700 -1.0388
 2203TIP3   OH222275   0.816   6.174   1.872 -0.0004 -0.2587  0.5079
 2203TIP3    H122276   0.887   6.187   1.809 -1.5438  2.8614 -0.8473
 2203TIP3    H222277   0.858   6.174   1.957  1.9240 -2.3067 -0.3409
 2204TIP3   OH222278   3.808   1.763   6.948 -0.1579 -0.0358  0.3126
 2204TIP3    H122279   3.802   1.698   7.018 -1.1549 -0.7790 -0.4298
 2204TIP3    H222280   3.756   1.726   6.876  1.9571  0.0314 -1.3523
 2205TIP3   OH222281   1.752   2.302   0.869 -0.3496 -0.3271  0.2245
 2205TIP3    H122282   1.792   2.372   0.816 -2.8973  1.0381 -0.0977
 2205TIP3    H222283   1.723   2.346   0.949  0.4107 -1.6458  1.2607
 2206TIP3   OH222284   5.678   3.169   2.432 -0.3829  0.2835  0.2650
 2206TIP3    H122285   5.709   3.158   2.522  0.0152  0.7098  0.1867
 2206TIP3    H222286   5.750   3.136   2.378 -0.0610  1.2625  0.0794
 2207TIP3   OH222287   0.916   1.023   6.832  0.7916 -0.5690 -0.4800
 2207TIP3    H122288   0.914   1.117   6.813  0.1159 -0.7162 -1.1718
 2207TIP3    H222289   0.825   0.996   6.830  0.7927 -0.8829  1.6507
 2208TIP3   OH222290   1.262   3.365   1.301 -0.0040 -0.5050 -0.3685
 2208TIP3    H122291   1.311   3.293   1.341 -2.1950 -2.6512 -1.2749
 2208TIP3    H222292   1.170   3.342   1.315 -0.7934  1.6293 -1.5808
 2209TIP3   OH222293   4.448   0.923   1.858 -0.2613  0.2215  0.4720
 2209TIP3    H122294   4.538   0.938   1.887 -0.0067  0.7819 -0.6042
 2209TIP3    H222295   4.447   0.945   1.765 -1.9802  2.1846  0.8847
 2210TIP3   OH222296   3.994   4.457   7.303  0.2267  0.0951 -0.3354
 2210TIP3    H122297   4.051   4.416   7.368  1.8130  0.6745 -1.3247
 2210TIP3    H222298   3.926   4.500   7.355 -0.8684 -2.7675  0.7769
 2211TIP3   OH222299   2.604   1.671   7.101 -0.8729 -0.2686  0.5528
 2211TIP3    H122300   2.568   1.635   7.182  0.6402 -1.6978  0.6429
 2211TIP3    H222301   2.558   1.624   7.032 -3.0953  1.8495  0.4592
 2212TIP3   OH222302   5.803   4.707   0.162  0.9287 -1.1105  0.2338
 2212TIP3    H122303   5.878   4.754   0.125  0.8293  0.8884  2.3886
 2212TIP3    H222304   5.727   4.751   0.124  0.8520 -0.3546  1.2163
 2213TIP3   OH222305   4.174   0.446   0.709  0.3415  0.4978  0.0268
 2213TIP3    H122306   4.090   0.490   0.721 -0.5876 -1.2736  0.3097
 2213TIP3    H222307   4.201   0.421   0.797  0.8299  0.4423 -0.1334
 2214TIP3   OH222308   5.698   5.698   7.134 -0.4166 -0.1944 -0.2295
 2214TIP3    H122309   5.742   5.737   7.058  2.4955 -1.0862  0.8862
 2214TIP3    H222310   5.750   5.621   7.156 -1.6797 -0.4680  2.1655
 2215TIP3   OH222311   5.279   0.625   6.525 -0.0080 -0.5383  0.2559
 2215TIP3    H122312   5.208   0.595   6.469  0.0509  0.4724 -0.3874
 2215TIP3    H222313   5.293   0.716   6.499 -0.0284 -0.0090  1.9625
 2216TIP3   OH222314   2.659   5.266   1.564  0.0373 -0.2559  0.3207
 2216TIP3    H122315   2.586   5.233   1.512 -1.0792 -0.1985  1.7787
 2216TIP3    H222316   2.698   5.334   1.510 -0.8924 -0.3990 -0.5651
 2217TIP3   OH222317   3.949   2.014   0.324  0.4063  0.2114  0.0014
 2217TIP3    H122318   3.927   2.028   0.416 -0.6567  0.9634 -0.3466
 2217TIP3    H222319   3.864   2.008   0.279  0.8861  1.0835 -1.0944
 2218TIP3   OH222320   0.912   2.043   6.883 -0.0960  0.2087  0.0497
 2218TIP3    H122321   0.950   1.985   6.949 -0.5455 -1.2250 -0.9150
 2218TIP3    H222322   0.817   2.034   6.895 -0.2014  2.0698  0.9869
 2219TIP3   OH222323   0.638   4.399   6.579  0.0063 -0.0844  0.0471
 2219TIP3    H122324   0.671   4.489   6.578  0.6970 -0.3326 -0.4777
 2219TIP3    H222325   0.662   4.364   6.493  1.0318 -1.2280  0.7786
 2220TIP3   OH222326   0.180   0.887   1.618 -0.1611  0.2111 -0.4013
 2220TIP3    H122327   0.115   0.950   1.650  0.3381  1.2802 -1.4044
 2220TIP3    H222328   0.169   0.888   1.523 -0.3030 -1.4235 -0.4197
 2221TIP3   OH222329   5.213   3.427   6.961 -0.0920 -0.0721  0.4872
 2221TIP3    H122330   5.127   3.397   6.930 -0.6553 -1.5919  3.1623
 2221TIP3    H222331   5.237   3.364   7.029  2.7338  0.8784  0.5033
 2222TIP3   OH222332   1.940   2.818   1.794  0.2689  0.3860 -0.1275
 2222TIP3    H122333   1.847   2.818   1.770  0.2415 -0.1032 -0.0302
 2222TIP3    H222334   1.967   2.908   1.782  0.1528  0.2455 -1.6181
 2223TIP3   OH222335   5.629   3.112   1.114  0.7823 -0.4798  0.4198
 2223TIP3    H122336   5.648   3.147   1.027  1.5412 -1.2089  0.2829
 2223TIP3    H222337   5.637   3.188   1.172  1.7485 -0.2707  0.0389
 2224TIP3   OH222338   2.526   4.986   1.570 -0.1851 -0.2609 -1.1396
 2224TIP3    H122339   2.466   5.057   1.594  1.6638  1.7289 -2.0196
 2224TIP3    H222340   2.484   4.942   1.496 -0.4075  1.3623 -2.0140
 2225TIP3   OH222341   1.001   0.652   1.453  0.1582  0.5946  0.1428
 2225TIP3    H122342   0.956   0.660   1.369  0.8260  0.5323 -0.2245
 2225TIP3    H222343   0.947   0.703   1.514 -0.8176 -0.1083 -0.1203
 2226TIP3   OH222344   0.128   0.240   6.526 -0.3370  0.0444  0.3425
 2226TIP3    H122345   0.072   0.294   6.471  2.0822  1.9714 -0.4247
 2226TIP3    H222346   0.154   0.167   6.470 -0.1914  0.4350 -0.1072
 2227TIP3   OH222347   4.102   6.245   0.824 -0.0306  0.3859  0.2923
 2227TIP3    H122348   4.170   6.181   0.845 -2.1570 -2.6096 -1.1395
 2227TIP3    H222349   4.026   6.217   0.875 -1.5315  0.6660 -1.6683
 2228TIP3   OH222350   1.969   1.446   0.380 -0.2954  0.1898 -0.5850
 2228TIP3    H122351   2.010   1.514   0.327 -0.6333 -1.1955 -2.7240
 2228TIP3    H222352   1.875   1.461   0.370 -0.3749  0.4357  0.3865
 2229TIP3   OH222353   2.580   3.535   6.976  1.0828 -0.6172  0.1449
 2229TIP3    H122354   2.517   3.490   6.919 -0.3912 -1.6686  2.4353
 2229TIP3    H222355   2.650   3.563   6.917 -0.7583 -0.7861 -2.2944
 2230TIP3   OH222356   4.492   1.622   0.834  0.0972 -0.3232  0.2944
 2230TIP3    H122357   4.515   1.584   0.919  1.3261  0.9233  0.5537
 2230TIP3    H222358   4.435   1.696   0.855  0.8514  0.3311  0.1111
 2231TIP3   OH222359   6.276   3.318   1.646 -0.0413 -0.3367 -0.1620
 2231TIP3    H122360   6.248   3.374   1.573  1.2172 -0.5425 -0.8371
 2231TIP3    H222361   6.318   3.244   1.603  2.8551  0.6665  0.7738
 2232TIP3   OH222362   1.055   2.316   0.042 -0.1871  0.2259 -0.2765
 2232TIP3    H122363   0.972   2.269   0.030  0.3116 -0.2602 -2.1311
 2232TIP3    H222364   1.113   2.251   0.083 -0.5147  0.3619  0.4195
 2233TIP3   OH222365   5.641   6.242   1.387 -0.2467 -0.0596  0.3542
 2233TIP3    H122366   5.628   6.158   1.431  1.2786 -0.7506 -0.4354
 2233TIP3    H222367   5.618   6.308   1.453 -2.2754 -1.0663  0.7218
 2234TIP3   OH222368   4.959   0.613   1.081 -0.6345  0.0315 -0.0289
 2234TIP3    H122369   4.909   0.546   1.128 -0.9862 -0.3640 -0.9536
 2234TIP3    H222370   4.895   0.683   1.065 -0.9768 -0.5799 -1.4285
 2235TIP3   OH222371   4.125   1.996   7.489  0.3241  0.5109 -0.3615
 2235TIP3    H122372   4.080   2.033   7.565  0.4459  1.8427 -0.8984
 2235TIP3    H222373   4.056   1.984   7.424  0.1304 -1.1222  0.0995
 2236TIP3   OH222374   5.896   2.000   6.658  0.0787  0.6405  0.1374
 2236TIP3    H122375   5.808   1.966   6.671  0.7245 -0.3935  2.1277
 2236TIP3    H222376   5.889   2.056   6.580 -2.3240  0.6414  0.3011
 2237TIP3   OH222377   5.388   3.479   0.253  0.2555 -0.1360 -0.1575
 2237TIP3    H122378   5.361   3.534   0.327  0.5832  0.0831 -0.1982
 2237TIP3    H222379   5.464   3.432   0.285  0.1442 -0.3550 -0.2175
 2238TIP3   OH222380   2.878   4.220   0.911 -0.0392 -0.5410 -0.0097
 2238TIP3    H122381   2.794   4.197   0.871  0.3275 -1.1806 -0.4342
 2238TIP3    H222382   2.935   4.145   0.893  0.4878 -0.3262  0.6853
 2239TIP3   OH222383   1.995   3.158   1.204 -0.6473  0.0055  0.4220
 2239TIP3    H122384   2.084   3.193   1.212 -0.9715  0.7253  0.9767
 2239TIP3    H222385   1.962   3.193   1.122 -0.9586  1.0069  0.9570
 2240TIP3   OH222386   0.403   0.944   7.514 -0.2327 -0.1334  0.3750
 2240TIP3    H122387   0.476   0.925   7.574 -0.1463  1.7930  0.9483
 2240TIP3    H222388   0.433   1.019   7.464 -1.4030 -0.0201 -0.1701
 2241TIP3   OH222389   5.132   5.441   7.706 -0.2505 -0.1427  0.2181
 2241TIP3    H122390   5.132   5.352   7.741 -1.1559  0.2458  1.2556
 2241TIP3    H222391   5.058   5.442   7.645 -0.7379  0.1220  0.8106
 2242TIP3   OH222392   5.990   4.088   0.940 -0.0789 -0.1812 -0.0549
 2242TIP3    H122393   6.053   4.104   0.870 -0.8634  1.3327 -0.4428
 2242TIP3    H222394   5.979   3.993   0.940  1.1884 -0.3604 -0.8557
 2243TIP3   OH222395   3.961   3.927   6.528  0.4721  0.1331 -0.2226
 2243TIP3    H122396   4.017   3.990   6.573 -0.0764  2.7611 -2.9380
 2243TIP3    H222397   4.016   3.848   6.521  1.5704  0.5667  2.3638
 2244TIP3   OH222398   1.383   0.084   1.157 -0.1772  0.2253 -0.1596
 2244TIP3    H122399   1.441   0.079   1.081  0.0932  0.7612  0.0046
 2244TIP3    H222400   1.441   0.106   1.230 -0.3370 -0.9298  0.3315
 2245TIP3   OH222401   4.426   3.978   0.923 -0.1361 -0.2058  0.4816
 2245TIP3    H122402   4.425   3.958   0.830  1.4545 -0.3449  0.4777
 2245TIP3    H222403   4.414   3.894   0.966  1.5100 -0.4950  0.4119
 2246TIP3   OH222404   5.121   1.281   7.542  0.2863  0.3495 -0.0022
 2246TIP3    H122405   5.110   1.229   7.463 -1.1575  0.6899 -0.0718
 2246TIP3    H222406   5.200   1.332   7.528 -0.5521  1.2499 -1.7594
 2247TIP3   OH222407   3.953   3.770   1.798  0.2661  0.4799  0.2482
 2247TIP3    H122408   4.001   3.774   1.880  0.1393  0.8982  0.3014
 2247TIP3    H222409   3.979   3.848   1.750 -0.9739  1.1440  0.6226
 2248TIP3   OH222410   1.139   3.599   1.505  0.5001  0.1236  0.4207
 2248TIP3    H122411   1.212   3.563   1.453  0.0944 -1.3825  0.8413
 2248TIP3    H222412   1.148   3.557   1.590  0.1653  1.2964  1.0512
 2249TIP3   OH222413   4.724   0.130   0.621  0.3894  0.1839 -0.4273
 2249TIP3    H122414   4.804   0.182   0.623  0.4244  0.1015  0.4719
 2249TIP3    H222415   4.672   0.169   0.550 -0.2952  2.5041  1.2418
 2250TIP3   OH222416   5.429   3.480   6.258 -0.1882 -0.8526  0.1254
 2250TIP3    H122417   5.422   3.557   6.202 -1.8827  0.3828  1.8831
 2250TIP3    H222418   5.523   3.474   6.280  0.0980  0.1582 -0.7629
 2251TIP3   OH222419   4.128   5.211   7.061 -0.0719  0.4674  0.1129
 2251TIP3    H122420   4.121   5.172   7.148  0.1526 -0.6808 -0.3726
 2251TIP3    H222421   4.180   5.148   7.011 -3.4303 -0.8906 -2.0101
 2252TIP3   OH222422   0.885   2.972   7.222 -0.2021 -0.4925 -0.7887
 2252TIP3    H122423   0.962   2.937   7.266 -0.7058  0.3824  0.8652
 2252TIP3    H222424   0.813   2.958   7.283 -1.1398 -0.1659 -1.7771
 2253TIP3   OH222425   3.087   3.383   5.777 -0.1090  0.2532  0.4215
 2253TIP3    H122426   3.006   3.376   5.726 -0.9791 -2.1926  1.9546
 2253TIP3    H222427   3.080   3.467   5.822 -2.5353 -0.4658  1.5830
 2254TIP3   OH222428   3.251   4.609   0.344 -0.0145 -0.2552  0.1649
 2254TIP3    H122429   3.261   4.514   0.352 -1.6902 -0.4246  0.7519
 2254TIP3    H222430   3.262   4.627   0.251  0.5552 -0.9926  0.0826
 2255TIP3   OH222431   4.943   1.429   2.176  0.0004 -0.0338  0.9403
 2255TIP3    H122432   4.861   1.430   2.126  0.4448  1.8798  0.1258
 2255TIP3    H222433   4.996   1.498   2.135  1.0782  0.4267  2.9646
 2256TIP3   OH222434   4.650   5.740   6.693 -0.0669 -0.2019 -0.3028
 2256TIP3    H122435   4.628   5.833   6.701 -1.3657 -0.3107 -2.0531
 2256TIP3    H222436   4.743   5.740   6.668 -0.5344  0.7706 -2.2792
 2257TIP3   OH222437   0.167   2.598   1.340  0.7093  0.4982 -0.6460
 2257TIP3    H122438   0.126   2.528   1.391  1.0839  2.4862  2.5843
 2257TIP3    H222439   0.210   2.552   1.267 -1.4633 -2.2843 -0.3333
 2258TIP3   OH222440   4.668   2.635   1.580 -0.2295 -0.2394 -0.0741
 2258TIP3    H122441   4.607   2.622   1.508  0.3247  0.4222 -0.6927
 2258TIP3    H222442   4.623   2.695   1.639 -1.4058 -2.1488  1.0705
 2259TIP3   OH222443   0.172   4.640   6.533 -0.8927  0.0645  0.2603
 2259TIP3    H122444   0.243   4.577   6.532 -1.5584 -0.7149  0.8026
 2259TIP3    H222445   0.099   4.595   6.492 -1.1156  0.8181 -0.1987
 2260TIP3   OH222446   5.444   3.091   2.728  0.4426 -0.0038  0.2243
 2260TIP3    H122447   5.442   3.174   2.680 -3.1227 -0.2922 -0.3633
 2260TIP3    H222448   5.395   3.030   2.673 -0.6180 -1.3518  2.5271
 2261TIP3   OH222449   0.646   3.298   0.058 -0.4869 -0.2639 -0.0900
 2261TIP3    H122450   0.739   3.279   0.063 -0.7372 -1.2210  1.7204
 2261TIP3    H222451   0.606   3.217   0.027 -0.9166 -0.7261  1.5333
 2262TIP3   OH222452   4.996   2.355   6.512 -0.4982  1.0066 -0.2845
 2262TIP3    H122453   5.010   2.440   6.470  1.3389  1.0584  0.3523
 2262TIP3    H222454   5.069   2.347   6.574 -1.2047 -0.6011  0.3726
 2263TIP3   OH222455   2.013   0.809   6.501 -0.0988  0.3368  0.2029
 2263TIP3    H122456   1.962   0.750   6.446  0.4012 -1.6496  1.7328
 2263TIP3    H222457   2.046   0.875   6.441 -0.2538 -1.2335 -1.7404
 2264TIP3   OH222458   5.572   6.046   1.568  0.0209  0.3793 -0.5566
 2264TIP3    H122459   5.487   6.086   1.587  0.3691  0.5638  0.7544
 2264TIP3    H222460   5.607   6.021   1.654  0.4538 -1.4661 -1.2095
 2265TIP3   OH222461   1.466   4.451   6.364  0.4549 -0.0650  0.4776
 2265TIP3    H122462   1.377   4.423   6.346  0.7520 -2.6614  2.5211
 2265TIP3    H222463   1.490   4.505   6.288 -2.2224 -0.6604 -0.9088
 2266TIP3   OH222464   5.142   5.631   6.742  0.8764 -1.0752 -0.2481
 2266TIP3    H122465   5.154   5.536   6.737 -2.5026 -1.6238 -0.2187
 2266TIP3    H222466   5.140   5.650   6.836  1.0924 -1.0338 -0.2508
 2267TIP3   OH222467   4.797   4.295   6.757  0.3296  0.1991  0.2250
 2267TIP3    H122468   4.742   4.269   6.683  0.3809 -1.8645  0.8453
 2267TIP3    H222469   4.780   4.228   6.824  1.5316  1.0779  1.4573
 2268TIP3   OH222470   2.063   4.899   0.405  0.2018  0.0026 -0.0197
 2268TIP3    H122471   2.094   4.936   0.323 -2.0897 -0.5915 -1.2482
 2268TIP3    H222472   2.019   4.971   0.450  1.8514  0.4461  0.9712
 2269TIP3   OH222473   5.440   3.034   7.177  0.0115  0.2748  0.0031
 2269TIP3    H122474   5.442   3.085   7.095 -1.9642 -0.1208 -0.3515
 2269TIP3    H222475   5.532   3.021   7.199  0.6006  0.7547 -1.9345
 2270TIP3   OH222476   0.204   4.042   2.016 -0.0850  0.3045  0.3385
 2270TIP3    H122477   0.140   4.044   2.086 -0.8231  2.1718 -0.3363
 2270TIP3    H222478   0.288   4.059   2.059 -0.0499 -1.6071  1.1433
 2271TIP3   OH222479   5.318   2.944   2.531 -0.0302 -0.5279 -0.0084
 2271TIP3    H122480   5.386   2.938   2.464  1.3722 -1.1747  1.4110
 2271TIP3    H222481   5.239   2.911   2.488  1.0226 -1.7441 -1.0963
 2272TIP3   OH222482   1.680   1.660   1.225 -0.4625 -0.0656 -0.2958
 2272TIP3    H122483   1.657   1.702   1.308 -0.6291 -0.0319 -0.3595
 2272TIP3    H222484   1.695   1.732   1.164 -0.9112 -0.1019 -0.4477
 2273TIP3   OH222485   1.254   6.308   7.004  0.7129 -0.7163 -0.0842
 2273TIP3    H122486   1.302   6.231   7.034 -0.3159 -1.1093  0.6042
 2273TIP3    H222487   1.189   6.324   7.073  0.1806  0.0889 -0.7585
 2274TIP3   OH222488   0.596   2.666   1.430 -0.4451  0.2767 -0.2809
 2274TIP3    H122489   0.506   2.689   1.455 -0.5099  0.4184 -0.6417
 2274TIP3    H222490   0.591   2.573   1.407 -0.3050  0.0418  0.5984
 2275TIP3   OH222491   3.461   2.107   0.397  0.1841 -0.1424 -0.2129
 2275TIP3    H122492   3.508   2.025   0.387 -0.8022 -0.6613 -0.7424
 2275TIP3    H222493   3.492   2.161   0.324  1.1844  0.1509  0.4076
 2276TIP3   OH222494   5.064   1.302   0.053 -0.0465  0.1595  0.0855
 2276TIP3    H122495   5.103   1.311  -0.034 -0.0579  0.0121  0.0642
 2276TIP3    H222496   4.973   1.277   0.036 -0.3416  1.1973  0.1251
 2277TIP3   OH222497   3.669   2.343   1.894 -0.3463 -0.0834 -0.0510
 2277TIP3    H122498   3.657   2.295   1.812 -3.0480 -0.1308  0.2865
 2277TIP3    H222499   3.711   2.280   1.953 -0.1239 -0.6604 -0.8059
 2278TIP3   OH222500   2.184   0.291   6.724  0.2147 -0.4786  0.5556
 2278TIP3    H122501   2.111   0.352   6.731  1.8220  1.6343  0.0862
 2278TIP3    H222502   2.182   0.262   6.633 -0.0834 -0.4977  0.5672
 2279TIP3   OH222503   2.068   5.997   6.494  0.3289  0.2779  0.2125
 2279TIP3    H122504   2.043   5.972   6.583  0.0110  1.3983  0.4592
 2279TIP3    H222505   2.158   6.029   6.502  1.1000 -1.6212 -0.2751
 2280TIP3   OH222506   4.795   0.129   6.727  0.0276 -0.2504 -0.1001
 2280TIP3    H122507   4.855   0.189   6.772 -0.8552  0.7607 -0.2506
 2280TIP3    H222508   4.784   0.167   6.640 -1.6027  0.1319  0.2479
 2281TIP3   OH222509   3.172   1.350   7.432 -0.1226  0.1869  0.2176
 2281TIP3    H122510   3.253   1.399   7.415 -0.7914  1.5590  0.8003
 2281TIP3    H222511   3.122   1.358   7.350 -0.3678  0.7787  0.4194
 2282TIP3   OH222512   1.098   3.763   1.974 -0.4537 -0.0814 -0.3679
 2282TIP3    H122513   1.133   3.695   2.031 -2.2041 -1.9904 -1.4703
 2282TIP3    H222514   1.134   3.844   2.011  1.3023 -1.4922  1.2951
 2283TIP3   OH222515   5.391   2.827   6.469 -0.1765 -0.4021  0.0029
 2283TIP3    H122516   5.374   2.811   6.376 -1.8706 -0.5455  0.3092
 2283TIP3    H222517   5.418   2.919   6.472 -1.5530  0.0523 -0.5050
 2284TIP3   OH222518   3.049   2.212   6.822  0.3613  0.1181 -0.1863
 2284TIP3    H122519   2.965   2.165   6.814  0.4420 -0.1707  0.5739
 2284TIP3    H222520   3.089   2.203   6.736 -1.0450  1.5398 -1.0492
 2285TIP3   OH222521   5.163   5.412   5.935  0.5184 -0.1677  0.1117
 2285TIP3    H122522   5.140   5.369   5.852  1.3734 -0.1295 -0.1538
 2285TIP3    H222523   5.177   5.503   5.912  0.9083 -0.1858  0.2689
 2286TIP3   OH222524   4.885   3.951   0.883 -0.0055 -0.4615 -0.4682
 2286TIP3    H122525   4.848   3.863   0.889  1.0355 -0.8710  0.2360
 2286TIP3    H222526   4.971   3.944   0.925 -0.0244  0.9578 -0.1436
 2287TIP3   OH222527   2.998   0.128   7.142  0.3588  0.0721 -0.4441
 2287TIP3    H122528   3.003   0.043   7.098 -0.8604  0.0632 -0.5993
 2287TIP3    H222529   3.049   0.116   7.222 -1.0722 -1.3376  0.3325
 2288TIP3   OH222530   3.384   2.109   1.314 -0.1551 -0.3827 -0.3387
 2288TIP3    H122531   3.309   2.059   1.281  0.5032 -1.3482 -0.4133
 2288TIP3    H222532   3.455   2.045   1.319  0.5963  0.4579 -0.0139
 2289TIP3   OH222533   5.674   1.576   7.484 -0.2628 -0.3519  0.0347
 2289TIP3    H122534   5.755   1.536   7.449  0.2193  1.0337 -0.4935
 2289TIP3    H222535   5.607   1.553   7.420  0.0515 -0.1668 -0.3693
 2290TIP3   OH222536   3.645   2.801   7.481 -0.3354  0.0536 -0.2351
 2290TIP3    H122537   3.624   2.817   7.389 -0.6645  0.3624 -0.1059
 2290TIP3    H222538   3.730   2.843   7.494 -0.8428  1.0795 -0.0921
 2291TIP3   OH222539   1.340   1.267   7.481  0.3582  0.1268  0.7007
 2291TIP3    H122540   1.420   1.236   7.523  0.5755 -1.2303 -0.6478
 2291TIP3    H222541   1.281   1.192   7.482 -0.8623  1.0670  1.5356
 2292TIP3   OH222542   5.287   5.739   7.696 -0.2742 -0.3276 -0.1799
 2292TIP3    H122543   5.236   5.685   7.636 -1.0059  1.6067 -1.3846
 2292TIP3    H222544   5.377   5.731   7.665 -0.4669 -0.3639 -0.7350
 2293TIP3   OH222545   2.032   1.358   6.907 -0.0873  0.4875 -0.1195
 2293TIP3    H122546   1.990   1.414   6.973  1.2030 -0.1238  1.2740
 2293TIP3    H222547   2.059   1.280   6.955  2.2800  0.6809 -0.9988
 2294TIP3   OH222548   4.753   0.549   0.723  0.2953  0.4569 -0.0394
 2294TIP3    H122549   4.669   0.508   0.701 -0.1424  1.2238  0.1334
 2294TIP3    H222550   4.728   0.636   0.754  1.0605  0.2371  1.2419
 2295TIP3   OH222551   3.439   1.526   2.018 -0.3839 -0.1495 -0.0520
 2295TIP3    H122552   3.441   1.441   2.062  0.8115  0.4144  1.0894
 2295TIP3    H222553   3.526   1.535   1.979 -0.8535  0.1162 -1.0639
 2296TIP3   OH222554   2.277   4.529   1.011 -0.3677  0.0416  0.3988
 2296TIP3    H122555   2.213   4.458   1.013 -0.6675  0.3181  1.1480
 2296TIP3    H222556   2.347   4.497   0.954  0.0012 -1.3194  1.5387
 2297TIP3   OH222557   1.289   2.299   1.513  0.2079  0.2021  0.2875
 2297TIP3    H122558   1.380   2.291   1.483  0.1694 -0.4307  0.3237
 2297TIP3    H222559   1.253   2.210   1.505 -0.7692  0.6667 -0.8565
 2298TIP3   OH222560   2.542   2.966   1.872  0.0912 -0.1892  0.1413
 2298TIP3    H122561   2.511   2.876   1.864 -0.6236 -0.0411  1.0834
 2298TIP3    H222562   2.465   3.016   1.901  0.8339  0.4459  1.1013
 2299TIP3   OH222563   3.136   4.073   0.534 -0.1630 -0.4971  0.2343
 2299TIP3    H122564   3.054   4.122   0.528 -0.1140 -0.5863 -1.8865
 2299TIP3    H222565   3.131   4.028   0.619 -2.0741 -0.1229  0.3577
 2300TIP3   OH222566   2.173   5.322   2.605  0.1081 -0.2887 -0.9859
 2300TIP3    H122567   2.078   5.321   2.611  0.1726  0.8034  0.8641
 2300TIP3    H222568   2.202   5.252   2.664  0.4741 -0.0494 -0.8760
 2301TIP3   OH222569   2.461   6.150   7.692 -0.2978  0.3638 -0.1354
 2301TIP3    H122570   2.536   6.196   7.653 -0.8364  1.0316 -0.3999
 2301TIP3    H222571   2.486   6.138   7.784  1.3983 -2.0798 -0.8093
 2302TIP3   OH222572   4.730   4.702   0.020 -0.0606  0.0980 -1.2912
 2302TIP3    H122573   4.722   4.608   0.030  0.5951  0.1800  0.2956
 2302TIP3    H222574   4.793   4.728   0.088 -2.6088  2.0618  0.5274
 2303TIP3   OH222575   0.685   0.032   0.574 -0.5482  0.5756 -0.2531
 2303TIP3    H122576   0.780   0.019   0.578 -0.6421  0.1015  0.7388
 2303TIP3    H222577   0.659  -0.008   0.491 -0.3362 -2.4834  1.0283
 2304TIP3   OH222578   1.602   3.221   6.771 -0.3197 -0.4877  0.0320
 2304TIP3    H122579   1.693   3.198   6.752 -0.5117 -0.7098 -0.6183
 2304TIP3    H222580   1.560   3.228   6.686 -0.4994  1.3779  0.2321
 2305TIP3   OH222581   3.723   1.226   0.411 -0.4018  1.2345  0.6780
 2305TIP3    H122582   3.646   1.178   0.443  1.1862 -0.6900  1.8801
 2305TIP3    H222583   3.753   1.276   0.486  1.0153 -0.1451  1.0897
 2306TIP3   OH222584   4.737   2.998   0.497  0.0366 -0.3988 -0.1400
 2306TIP3    H122585   4.731   3.060   0.424 -0.0868 -0.3379 -0.0775
 2306TIP3    H222586   4.821   2.953   0.483  0.3499  0.1083  0.0669
 2307TIP3   OH222587   0.943   3.980   1.154  0.0401 -0.3950 -0.3091
 2307TIP3    H122588   0.892   4.035   1.213 -0.3602 -1.6546  0.5349
 2307TIP3    H222589   0.962   4.037   1.079 -0.5469  0.8179  0.4434
 2308TIP3   OH222590   2.178   3.281   7.404 -0.1470  0.2357 -0.1487
 2308TIP3    H122591   2.200   3.337   7.330 -0.6458 -1.1986 -1.4294
 2308TIP3    H222592   2.085   3.262   7.392  0.0876 -1.1072  0.0770
 2309TIP3   OH222593   1.672   2.014   0.308 -0.4231  0.1770 -0.3948
 2309TIP3    H122594   1.642   2.095   0.268 -1.3736 -0.2991 -0.6821
 2309TIP3    H222595   1.741   2.041   0.369 -1.4393  1.3366  0.3025
 2310TIP3   OH222596   0.905   1.294   6.780  0.4243 -0.0348 -0.3624
 2310TIP3    H122597   0.854   1.335   6.850  0.7253 -0.6945  0.2549
 2310TIP3    H222598   0.881   1.343   6.702 -0.5136  0.2125  0.0602
 2311TIP3   OH222599   6.059   2.087   1.663 -1.1395  0.5045 -0.7248
 2311TIP3    H122600   5.998   2.058   1.595 -3.3017 -0.4793  1.4574
 2311TIP3    H222601   6.051   2.021   1.732  2.4912  0.3327 -0.2955
 2312TIP3   OH222602   3.713   0.215   0.294 -0.0862 -0.4046 -0.1507
 2312TIP3    H122603   3.676   0.179   0.375  0.1153 -0.6738 -0.1780
 2312TIP3    H222604   3.748   0.301   0.319 -3.0561  1.0873 -0.6513
 2313TIP3   OH222605   3.326   5.035   0.762 -0.0195  0.2870  0.3067
 2313TIP3    H122606   3.392   5.000   0.702 -1.5829 -3.2930  0.3568
 2313TIP3    H222607   3.344   4.992   0.845 -0.4576  1.8686  1.2549
 2314TIP3   OH222608   1.354   0.905   0.306  0.2085  0.3305  0.2526
 2314TIP3    H122609   1.337   0.879   0.397  1.3001 -3.7119 -0.4848
 2314TIP3    H222610   1.449   0.906   0.299  0.1390  0.7415 -0.8276
 2315TIP3   OH222611   3.166   3.788   6.075 -0.6788  0.2791 -0.1775
 2315TIP3    H122612   3.161   3.882   6.094  1.0608  0.4455 -0.3465
 2315TIP3    H222613   3.241   3.758   6.126 -0.4017 -0.7477 -1.1533
 2316TIP3   OH222614   6.000   1.070   6.124  0.0007  0.0412 -0.0995
 2316TIP3    H122615   5.951   1.080   6.043  0.2746 -1.2498 -0.4433
 2316TIP3    H222616   5.950   1.120   6.189 -1.2501 -0.4624 -0.6539
 2317TIP3   OH222617   0.287   5.823   1.646  0.3785 -0.3545  0.5399
 2317TIP3    H122618   0.226   5.760   1.685  0.4478  0.1955  1.5940
 2317TIP3    H222619   0.325   5.868   1.722  0.5931  0.7091 -0.1890
 2318TIP3   OH222620   4.146   4.335   0.134 -0.2218 -0.6890 -0.0659
 2318TIP3    H122621   4.200   4.409   0.106 -0.5630 -0.4007  0.0237
 2318TIP3    H222622   4.059   4.373   0.148 -0.9659 -1.4927 -2.1322
 2319TIP3   OH222623   3.638   3.164   1.751  0.2577 -0.0176 -0.9412
 2319TIP3    H122624   3.607   3.226   1.818  1.1221  0.0055 -0.5410
 2319TIP3    H222625   3.563   3.109   1.733 -0.2838  0.6122 -0.6749
 2320TIP3   OH222626   6.000   5.991   7.151 -0.5918  0.0079 -0.2177
 2320TIP3    H122627   6.035   6.028   7.232  0.8621  1.4567 -1.4360
 2320TIP3    H222628   5.905   5.999   7.160 -0.3919  3.3165 -0.0110
 2321TIP3   OH222629   6.160   4.536   7.088  0.6692  0.3536 -0.4904
 2321TIP3    H122630   6.242   4.512   7.130  0.8477  1.7324  0.0036
 2321TIP3    H222631   6.178   4.619   7.045 -0.1362  0.0642 -1.4311
 2322TIP3   OH222632   3.130   3.141   5.899  0.3860 -0.1313  0.3466
 2322TIP3    H122633   3.054   3.161   5.954  0.7333  1.4692  0.3062
 2322TIP3    H222634   3.136   3.215   5.839  2.3763  0.1610  0.8296
 2323TIP3   OH222635   3.158   5.670   1.164 -0.2436 -0.3252 -0.0838
 2323TIP3    H122636   3.097   5.666   1.091 -0.9117 -0.7867  0.4917
 2323TIP3    H222637   3.222   5.736   1.138  0.5628 -1.7240 -1.8776
 2324TIP3   OH222638   3.160   1.802   6.628  0.0721 -0.9928 -0.7241
 2324TIP3    H122639   3.190   1.871   6.686 -2.2568  0.2705 -0.9117
 2324TIP3    H222640   3.239   1.772   6.584  1.4756 -0.0643  1.0479
 2325TIP3   OH222641   4.494   4.675   7.651  0.0601  0.0784  0.6395
 2325TIP3    H122642   4.585   4.691   7.676 -0.0557  0.4842  0.8236
 2325TIP3    H222643   4.466   4.757   7.610  0.3462 -0.6814 -1.1659
 2326TIP3   OH222644   0.346   3.865   1.446 -0.0186 -0.1304 -0.0178
 2326TIP3    H122645   0.408   3.842   1.377 -0.2525 -1.0191  0.0647
 2326TIP3    H222646   0.272   3.904   1.400  0.0348 -0.2772 -0.2275
 2327TIP3   OH222647   6.016   2.729   7.392 -0.1345  0.3414 -0.1505
 2327TIP3    H122648   5.951   2.703   7.458 -0.7424 -0.5457 -1.0607
 2327TIP3    H222649   6.047   2.814   7.421  0.1486 -0.3315  1.6672
 2328TIP3   OH222650   0.939   5.528   5.336 -0.1003 -0.3781 -0.1863
 2328TIP3    H122651   0.867   5.534   5.273  0.3429 -0.1033 -0.6721
 2328TIP3    H222652   0.951   5.433   5.349  0.3333 -0.4642 -1.1355
 2329TIP3   OH222653   0.739   3.752   1.403 -0.3920 -0.1025 -0.4819
 2329TIP3    H122654   0.713   3.833   1.447 -1.5745 -1.1085  0.7774
 2329TIP3    H222655   0.662   3.727   1.351 -1.1645 -1.8602  1.3851
 2330TIP3   OH222656   2.233   5.612   7.410 -0.6121  0.3957 -0.1258
 2330TIP3    H122657   2.321   5.609   7.445 -1.0669  0.9368  1.1296
 2330TIP3    H222658   2.214   5.522   7.383  0.2422  0.2397 -0.2270
 2331TIP3   OH222659   3.681   5.508   7.367 -0.1484  0.6233  0.3931
 2331TIP3    H122660   3.614   5.461   7.317  1.3603 -1.1369 -0.1026
 2331TIP3    H222661   3.733   5.554   7.300  0.0773  0.7086  0.6251
 2332TIP3   OH222662   5.873   4.839   6.360 -0.8757 -0.2778  0.1450
 2332TIP3    H122663   5.818   4.763   6.341  0.7066 -1.2460 -0.7796
 2332TIP3    H222664   5.902   4.870   6.274 -0.1572  0.3261  0.5892
 2333TIP3   OH222665   5.940   1.144   2.895 -0.4600  0.4474 -0.1537
 2333TIP3    H122666   6.025   1.150   2.851 -0.9781  0.4459 -1.1917
 2333TIP3    H222667   5.903   1.232   2.888 -0.8903  0.2456 -0.4360
 2334TIP3   OH222668   6.230   1.656   5.638  0.3718  0.5742 -0.3818
 2334TIP3    H122669   6.237   1.562   5.618 -0.4590  0.3586  0.2981
 2334TIP3    H222670   6.140   1.678   5.615  0.2494  0.9636  0.4563
 2335TIP3   OH222671   0.321   1.533   6.999  0.7620 -0.3901  0.1271
 2335TIP3    H122672   0.317   1.624   7.029 -3.2224 -0.2757 -0.1331
 2335TIP3    H222673   0.317   1.540   6.903 -1.1214 -0.7459  0.1369
 2336TIP3   OH222674   2.144   4.397   6.221  0.6135  0.3947 -0.0388
 2336TIP3    H122675   2.079   4.328   6.230  0.8725  0.1570  0.0082
 2336TIP3    H222676   2.147   4.415   6.127  0.6055  0.2834 -0.0606
 2337TIP3   OH222677   3.943   4.263   0.352  0.3072 -0.6367 -0.0956
 2337TIP3    H122678   3.850   4.241   0.348  0.2579 -0.7737  1.2074
 2337TIP3    H222679   3.949   4.350   0.312 -0.2603 -0.9375 -0.8561
 2338TIP3   OH222680   1.421   1.106   0.569 -0.3410 -0.2527  0.1940
 2338TIP3    H122681   1.477   1.028   0.571 -0.1860 -0.2180 -1.3392
 2338TIP3    H222682   1.366   1.097   0.647  1.4417 -0.5200  1.4904
 2339TIP3   OH222683   1.480   1.511   7.708  0.6925 -0.1237  0.3432
 2339TIP3    H122684   1.503   1.521   7.615  0.7467 -1.7305  0.1584
 2339TIP3    H222685   1.542   1.446   7.741 -0.8551 -1.3964  0.8807
 2340TIP3   OH222686   2.280   5.179   1.041 -0.1723 -0.0391 -0.1655
 2340TIP3    H122687   2.228   5.259   1.033  0.2583  0.1493 -1.2441
 2340TIP3    H222688   2.359   5.206   1.086 -0.3758 -0.0316  0.1930
 2341TIP3   OH222689   3.204   0.430   1.011 -0.0249 -0.0429  0.2389
 2341TIP3    H122690   3.143   0.498   1.038 -1.2736 -0.3350 -1.6154
 2341TIP3    H222691   3.273   0.477   0.964  0.5907  0.1763  1.3362
 2342TIP3   OH222692   4.081   4.748   7.517  0.3064 -0.1522 -0.1809
 2342TIP3    H122693   4.017   4.819   7.524  1.5885  0.9905  0.3894
 2342TIP3    H222694   4.034   4.671   7.549 -1.8275 -0.0956 -2.8230
 2343TIP3   OH222695   4.644   6.243   6.866 -0.2854 -0.2570 -0.8721
 2343TIP3    H122696   4.676   6.321   6.820  2.2570 -1.5117 -1.4235
 2343TIP3    H222697   4.667   6.258   6.958 -1.0109  0.1834 -0.7537
 2344TIP3   OH222698   4.819   4.316   1.081 -0.0691  0.2044  0.4727
 2344TIP3    H122699   4.818   4.356   0.995  0.3528 -1.8875 -0.5814
 2344TIP3    H222700   4.868   4.377   1.136  1.9980  0.3850 -1.4475
 2345TIP3   OH222701   5.393   2.051   0.765  0.1941  0.2691 -0.1549
 2345TIP3    H122702   5.334   2.050   0.690  1.4133 -0.0539 -1.1372
 2345TIP3    H222703   5.480   2.053   0.727  0.8836 -1.0639  1.2354
 2346TIP3   OH222704   2.763   1.612   1.112  0.1320  0.1371 -0.9293
 2346TIP3    H122705   2.856   1.589   1.114  0.3285  0.9416 -0.2164
 2346TIP3    H222706   2.725   1.562   1.184  0.5109  1.7725  0.4510
 2347TIP3   OH222707   5.783   4.231   6.484  0.3635  0.1578  0.3511
 2347TIP3    H122708   5.716   4.285   6.524  1.0301  0.8782  0.5169
 2347TIP3    H222709   5.753   4.218   6.394  1.0596  2.3636 -0.2702
 2348TIP3   OH222710   1.742   1.580   2.038  0.1702 -0.2214  0.4035
 2348TIP3    H122711   1.751   1.490   2.069  0.5698 -0.5954 -0.7780
 2348TIP3    H222712   1.826   1.621   2.058 -0.9068  0.7988  3.6134
 2349TIP3   OH222713   4.318   4.772   2.211  0.5182 -0.5229  0.2722
 2349TIP3    H122714   4.354   4.694   2.254  0.7768  0.4673  1.9101
 2349TIP3    H222715   4.225   4.754   2.203  0.4113 -0.6229  1.5500
 2350TIP3   OH222716   2.684   5.449   7.149  0.3987 -0.4392 -0.3015
 2350TIP3    H122717   2.604   5.400   7.170 -1.0242  1.6628 -0.4952
 2350TIP3    H222718   2.738   5.387   7.100 -0.4029 -2.4213  1.1569
 2351TIP3   OH222719   5.734   3.761   6.637  0.2916 -0.6202 -0.1518
 2351TIP3    H122720   5.657   3.816   6.622 -0.0509 -1.4681 -1.7540
 2351TIP3    H222721   5.775   3.798   6.715 -0.8944  0.7940 -0.1519
 2352TIP3   OH222722   3.723   0.647   1.230 -0.1490  0.2009 -0.1177
 2352TIP3    H122723   3.746   0.585   1.299 -0.2375  0.2320 -0.0604
 2352TIP3    H222724   3.755   0.732   1.263  2.9074 -0.2454 -1.5638
 2353TIP3   OH222725   2.727   2.813   2.513 -0.0182  0.2092  0.5266
 2353TIP3    H122726   2.812   2.779   2.543  1.1345  0.9374 -1.7284
 2353TIP3    H222727   2.678   2.735   2.489  0.4469 -0.1586  0.7380
 2354TIP3   OH222728   1.387   2.787   6.233 -0.3753  0.0675 -0.2039
 2354TIP3    H122729   1.376   2.741   6.316  3.0831  0.3332  0.5862
 2354TIP3    H222730   1.302   2.783   6.191 -2.2054 -0.3664  3.1983
 2355TIP3   OH222731   1.156   2.693   1.078 -0.7769 -0.0028  0.2845
 2355TIP3    H122732   1.128   2.663   0.992 -1.6778  0.0720  0.5345
 2355TIP3    H222733   1.235   2.745   1.062 -1.5160  0.8756 -0.6209
 2356TIP3   OH222734   1.261   4.353   2.464  0.3601  0.1653 -0.1130
 2356TIP3    H122735   1.169   4.373   2.481  0.2136 -1.4347  1.3585
 2356TIP3    H222736   1.304   4.369   2.548  1.4154  0.7916 -0.7626
 2357TIP3   OH222737   5.362   0.661   7.564  0.0751 -0.4284  0.1577
 2357TIP3    H122738   5.319   0.582   7.531 -1.4765 -0.2027  1.5267
 2357TIP3    H222739   5.337   0.730   7.503 -2.3796 -0.1075  1.4131
 2358TIP3   OH222740   0.066   5.195   1.757 -0.3054 -0.2925  0.0412
 2358TIP3    H122741   0.057   5.104   1.784 -0.1291 -0.0362  0.9920
 2358TIP3    H222742  -0.023   5.221   1.732 -0.5293 -0.4605  0.6460
 2359TIP3   OH222743   3.371   3.777   0.821  0.1677  0.0313 -0.3739
 2359TIP3    H122744   3.394   3.747   0.733 -0.7708  0.3493 -0.7331
 2359TIP3    H222745   3.369   3.873   0.814 -0.5636  0.0364 -0.1808
 2360TIP3   OH222746   5.058   4.469   0.724  0.1333 -0.1976  0.6619
 2360TIP3    H122747   5.088   4.380   0.741 -0.0951 -0.5610 -0.6890
 2360TIP3    H222748   5.138   4.520   0.713  0.2819 -0.6619 -0.5305
 2361TIP3   OH222749   0.896   5.452   1.813 -0.4150  0.1291 -0.5771
 2361TIP3    H122750   0.915   5.358   1.810  0.6322  0.2731  0.5951
 2361TIP3    H222751   0.934   5.487   1.733  0.3813 -0.2662 -0.3839
 2362TIP3   OH222752   3.304   4.209   1.541 -0.5302  0.1578  0.7335
 2362TIP3    H122753   3.245   4.284   1.532 -1.3377 -0.5120  0.1957
 2362TIP3    H222754   3.321   4.203   1.635  0.1964  1.4824  0.7071
 2363TIP3   OH222755   0.927   4.272   7.103  0.0548 -0.1974 -0.3598
 2363TIP3    H122756   0.887   4.312   7.180 -1.1202 -0.4897 -0.8010
 2363TIP3    H222757   1.022   4.278   7.119 -0.1683 -0.6546  1.3033
 2364TIP3   OH222758   1.325   3.069   6.445  0.3718  0.6168  0.2079
 2364TIP3    H122759   1.317   3.095   6.353 -2.5466 -1.8944 -0.4224
 2364TIP3    H222760   1.244   3.102   6.486  1.8455  2.1336  2.0742
 2365TIP3   OH222761   0.961   4.114   0.447 -0.1257  0.1788 -0.5323
 2365TIP3    H122762   0.934   4.194   0.401  1.4891  3.3935  3.4511
 2365TIP3    H222763   0.879   4.073   0.474 -1.1105  2.5182  0.2830
 2366TIP3   OH222764   0.973   3.294   0.642 -0.1369 -0.3960  0.2753
 2366TIP3    H122765   0.937   3.223   0.589 -0.9984  1.2616 -1.4992
 2366TIP3    H222766   1.066   3.296   0.621 -0.2979 -0.3784 -0.4573
 2367TIP3   OH222767   0.287   1.170   1.471 -0.0419  0.5060  0.3694
 2367TIP3    H122768   0.273   1.191   1.564  0.6532  2.0584  0.1631
 2367TIP3    H222769   0.343   1.241   1.439  0.8654 -0.7471 -0.9172
 2368TIP3   OH222770   5.367   5.351   1.122  0.4179  0.1729 -0.6014
 2368TIP3    H122771   5.330   5.274   1.078  0.3073 -1.1537  1.6528
 2368TIP3    H222772   5.408   5.401   1.052  0.8525 -2.1355 -2.1188
 2369TIP3   OH222773   0.578   2.144   0.780  0.1024 -0.0907 -0.5214
 2369TIP3    H122774   0.499   2.181   0.743 -0.0270 -0.1380 -0.2938
 2369TIP3    H222775   0.577   2.052   0.752 -0.1087 -0.1829 -0.2221
 2370TIP3   OH222776   4.451   5.655   0.662  0.1080  0.3721 -0.2654
 2370TIP3    H122777   4.498   5.574   0.682  1.1813  0.7869 -0.9838
 2370TIP3    H222778   4.394   5.669   0.738  2.2034  0.5674  1.4058
 2371TIP3   OH222779   5.012   3.385   0.586  0.4503  0.1722  0.1799
 2371TIP3    H122780   5.074   3.347   0.649  1.0085 -2.1633 -1.6657
 2371TIP3    H222781   5.049   3.366   0.500 -1.1712  1.7371 -0.9450
 2372TIP3   OH222782   2.403   3.970   1.121 -0.4559  0.2012  0.0659
 2372TIP3    H122783   2.481   4.018   1.150  0.5898  0.1665 -2.4071
 2372TIP3    H222784   2.367   4.024   1.051 -3.0148  0.4413  1.4418
 2373TIP3   OH222785   5.629   1.522   1.551  0.4260 -0.0608 -0.1778
 2373TIP3    H122786   5.696   1.519   1.483  0.3066 -0.3120 -0.2845
 2373TIP3    H222787   5.578   1.601   1.530  0.4010 -0.1266 -0.3693
 2374TIP3   OH222788   2.711   2.535   7.488 -0.1393  0.5143  0.4451
 2374TIP3    H122789   2.790   2.587   7.502 -1.2370  2.6393 -0.7262
 2374TIP3    H222790   2.729   2.484   7.409  0.3436  0.3850  0.6360
 2375TIP3   OH222791   2.753   3.168   1.299  0.0242  0.0520  0.3180
 2375TIP3    H122792   2.748   3.171   1.203 -0.3984  0.3870  0.3510
 2375TIP3    H222793   2.672   3.126   1.326 -0.8081  1.7695  0.6251
 2376TIP3   OH222794   3.411   3.192   0.849 -0.1498 -0.5069 -0.0526
 2376TIP3    H122795   3.389   3.284   0.838 -3.5002 -1.0591  0.7875
 2376TIP3    H222796   3.430   3.182   0.942 -1.4900 -0.8743  0.2139
 2377TIP3   OH222797   1.655   2.860   6.275  0.3989  0.5735 -0.4267
 2377TIP3    H122798   1.707   2.928   6.231  0.2694  1.8932  1.3418
 2377TIP3    H222799   1.576   2.853   6.222  1.8140 -0.6243 -2.4962
 2378TIP3   OH222800   1.992   2.688   1.480 -0.2695  0.2397 -0.0396
 2378TIP3    H122801   2.029   2.697   1.568  0.3332 -0.2319 -0.2369
 2378TIP3    H222802   1.966   2.776   1.455  0.6787  0.5787  0.1282
 2379TIP3   OH222803   5.012   4.518   1.126  0.2876 -0.0589 -0.4559
 2379TIP3    H122804   5.105   4.523   1.104  0.2874  0.4264 -0.3597
 2379TIP3    H222805   4.987   4.608   1.147 -0.4847  0.0380 -1.6387
 2380TIP3   OH222806   3.750   1.731   0.379  0.2047 -0.4024  0.4307
 2380TIP3    H122807   3.751   1.667   0.307 -0.0582  0.6370 -0.5168
 2380TIP3    H222808   3.657   1.749   0.394  0.2397 -0.8447  1.2671
 2381TIP3   OH222809   2.304   3.679   6.288 -0.3534  0.5010  0.0891
 2381TIP3    H122810   2.397   3.693   6.271 -0.3916  2.1933  1.1127
 2381TIP3    H222811   2.299   3.589   6.321  0.6774 -0.1454 -1.3814
 2382TIP3   OH222812   3.423   1.404   7.304  0.0111  0.1531 -0.7224
 2382TIP3    H122813   3.456   1.458   7.376 -2.1889 -1.6610  1.8504
 2382TIP3    H222814   3.480   1.327   7.303 -1.1265 -0.7667  0.5578
 2383TIP3   OH222815   3.154   0.458   2.150  0.1407 -0.0937  0.2129
 2383TIP3    H122816   3.104   0.500   2.220 -1.1821 -1.8648  0.3942
 2383TIP3    H222817   3.096   0.391   2.116  2.1791 -1.8944  0.0512
 2384TIP3   OH222818   4.793   1.163   6.499  0.6312 -0.9480 -0.3984
 2384TIP3    H122819   4.713   1.151   6.448  0.1456  0.4421  0.0028
 2384TIP3    H222820   4.819   1.074   6.523 -0.6596 -1.4440 -0.7315
 2385TIP3   OH222821   1.814   0.276   0.574  0.2178 -0.7686 -0.3732
 2385TIP3    H122822   1.893   0.279   0.519  0.8435 -0.3887  0.5177
 2385TIP3    H222823   1.780   0.365   0.573 -0.1513 -0.9122 -0.6822
 2386TIP3   OH222824   2.015   5.028   1.403  0.8664 -0.0670 -0.1596
 2386TIP3    H122825   1.935   5.059   1.361  1.1413 -1.7187 -1.9940
 2386TIP3    H222826   1.990   4.945   1.443  1.5078 -0.2681 -0.1777
 2387TIP3   OH222827   0.479   4.104   2.019  0.0271  0.3119 -0.5689
 2387TIP3    H122828   0.522   4.031   1.974  0.4680  0.5479 -0.5359
 2387TIP3    H222829   0.536   4.179   2.003 -0.4610  0.6696 -0.6681
 2388TIP3   OH222830   1.093   2.343   1.125 -0.5113  0.1730 -0.0060
 2388TIP3    H122831   1.020   2.322   1.068 -1.0176  1.1731  0.2502
 2388TIP3    H222832   1.075   2.432   1.155  1.0197  0.5793 -0.2474
 2389TIP3   OH222833   2.097   6.230   6.229  0.0457 -0.7482 -0.0988
 2389TIP3    H122834   2.172   6.278   6.264 -1.5964  0.6731  1.7390
 2389TIP3    H222835   2.114   6.139   6.252 -0.1292 -0.0986  3.1694
 2390TIP3   OH222836   2.359   5.050   7.672  0.5238  0.0738 -0.3823
 2390TIP3    H122837   2.420   5.098   7.615  1.6025 -0.2624  0.4495
 2390TIP3    H222838   2.337   5.112   7.742 -0.4161  0.3215 -0.8784
 2391TIP3   OH222839   0.097   0.313   2.484  0.4644 -0.5144  0.2226
 2391TIP3    H122840   0.075   0.337   2.394 -0.4918  0.2379  0.6451
 2391TIP3    H222841   0.039   0.366   2.538  0.6569 -1.3458  1.2783
 2392TIP3   OH222842   1.863   4.283   6.834  0.6821 -0.3782 -0.2228
 2392TIP3    H122843   1.958   4.278   6.830  0.8627  1.5191  0.7294
 2392TIP3    H222844   1.840   4.357   6.778 -0.2480 -0.7561 -0.3654
 2393TIP3   OH222845   5.963   4.983   1.699  0.1333 -0.4272 -0.1913
 2393TIP3    H122846   5.992   5.018   1.784 -0.7513  3.2489 -1.2112
 2393TIP3    H222847   5.870   4.965   1.710 -0.1220  0.6395 -0.4968
 2394TIP3   OH222848   4.817   6.276   1.534 -0.4431  0.4560 -0.6923
 2394TIP3    H122849   4.809   6.193   1.486 -0.4019 -0.0226  0.1086
 2394TIP3    H222850   4.727   6.303   1.552 -0.5555  1.7487 -2.8538
 2395TIP3   OH222851   4.209   4.282   0.931  0.2336  0.4719  0.0928
 2395TIP3    H122852   4.195   4.249   0.842  0.5455 -3.4206  1.3278
 2395TIP3    H222853   4.290   4.242   0.960 -0.1543  1.1745  2.3670
 2396TIP3   OH222854   2.623   1.114   2.389  0.4642  0.0731 -0.1187
 2396TIP3    H122855   2.554   1.119   2.455 -0.7454 -0.9956 -1.2364
 2396TIP3    H222856   2.683   1.046   2.421  0.0269 -0.2511  0.0195
 2397TIP3   OH222857   4.039   5.029   1.812 -0.1914 -0.3048  0.8812
 2397TIP3    H122858   4.069   5.115   1.840 -0.1698  0.7435 -2.0145
 2397TIP3    H222859   3.946   5.028   1.833  0.1851 -0.4304  2.7339
 2398TIP3   OH222860   1.233   0.585   7.683  0.2953 -0.8481  0.5749
 2398TIP3    H122861   1.327   0.567   7.681  0.1479 -1.7174  1.0698
 2398TIP3    H222862   1.214   0.610   7.773 -0.1623 -1.9325  0.7921
 2399TIP3   OH222863   2.938   4.274   6.742  0.1567  0.0496  0.4749
 2399TIP3    H122864   3.032   4.280   6.723 -0.2328  0.8076 -1.3472
 2399TIP3    H222865   2.897   4.258   6.658 -1.4262  0.3851  1.1492
 2400TIP3   OH222866   1.416   5.863   0.594  0.4398  0.2237  0.4552
 2400TIP3    H122867   1.442   5.811   0.671  0.7847 -1.6806 -0.8629
 2400TIP3    H222868   1.325   5.887   0.612  0.3044 -0.7371  1.1918
 2401TIP3   OH222869   3.288   0.107   1.036  0.5196 -0.5183  0.4309
 2401TIP3    H122870   3.228   0.034   1.050 -0.6575  0.6428  1.7124
 2401TIP3    H222871   3.258   0.175   1.096  0.3991  1.7322 -1.9862
 2402TIP3   OH222872   2.825   0.898   2.439 -0.0657  0.2175  0.0609
 2402TIP3    H122873   2.754   0.834   2.436  0.2039 -0.0588 -0.4107
 2402TIP3    H222874   2.846   0.916   2.348  0.6512  0.0950  0.1951
 2403TIP3   OH222875   1.190   4.008   1.783 -0.2642 -0.1650 -0.7760
 2403TIP3    H122876   1.148   3.938   1.733 -1.6799  0.2371 -0.1992
 2403TIP3    H222877   1.187   3.977   1.874 -0.2738  0.3444 -0.6029
 2404TIP3   OH222878   0.643   3.501   2.490  0.0107 -0.1261 -0.4527
 2404TIP3    H122879   0.719   3.540   2.533  0.6862  0.2613 -1.9076
 2404TIP3    H222880   0.608   3.439   2.554 -0.1275  1.6673  1.3114
 2405TIP3   OH222881   3.032   4.572   2.661  0.3963  0.1695  0.1124
 2405TIP3    H122882   2.994   4.640   2.716 -0.7092 -1.4512  1.4421
 2405TIP3    H222883   3.077   4.513   2.722  2.6544  0.4705 -1.1550
 2406TIP3   OH222884   5.451   3.390   1.974 -0.1949  0.4543 -0.2530
 2406TIP3    H122885   5.401   3.458   2.020  1.3780  1.9599 -0.6222
 2406TIP3    H222886   5.493   3.437   1.902  0.7958 -0.9678 -0.6393
 2407TIP3   OH222887   0.670   4.502   1.860  0.3638 -0.0635 -0.5884
 2407TIP3    H122888   0.659   4.543   1.774 -1.3453  0.0908 -0.3317
 2407TIP3    H222889   0.594   4.531   1.910  0.0699 -2.0761  0.2139
 2408TIP3   OH222890   0.931   1.662   1.384  0.6976  0.0788  0.0660
 2408TIP3    H122891   0.893   1.750   1.381 -0.9272 -0.6249 -1.6354
 2408TIP3    H222892   0.977   1.659   1.468  1.6376  2.8601 -0.2559
 2409TIP3   OH222893   1.511   6.092   6.014  0.5513 -0.5844  0.1679
 2409TIP3    H122894   1.596   6.112   5.974  0.5904 -1.9151 -0.4653
 2409TIP3    H222895   1.463   6.175   6.009  1.3608 -0.1330 -0.6066
 2410TIP3   OH222896   4.224   5.026   5.999 -0.2839 -0.5274 -0.3950
 2410TIP3    H122897   4.133   5.055   6.002  0.2551  1.6345 -2.0514
 2410TIP3    H222898   4.269   5.083   6.061  0.1580 -0.5756 -0.6689
 2411TIP3   OH222899   2.186   2.536   0.110 -0.6655 -0.0538 -0.3559
 2411TIP3    H122900   2.206   2.627   0.090 -1.2144 -0.0626 -0.9888
 2411TIP3    H222901   2.162   2.498   0.026  0.2913 -0.9824 -0.2295
 2412TIP3   OH222902   1.964   2.808   6.011  0.0912 -0.3459  0.6052
 2412TIP3    H122903   2.006   2.871   6.070 -1.5482  0.6951  0.7222
 2412TIP3    H222904   1.914   2.750   6.069  0.8375 -1.1846  0.4286
 2413TIP3   OH222905   4.996   3.634   6.580 -0.1920 -0.5928 -0.0538
 2413TIP3    H122906   5.088   3.653   6.598 -0.0899 -2.5400  1.8844
 2413TIP3    H222907   4.990   3.630   6.484  1.7708 -0.6522 -0.2058
 2414TIP3   OH222908   4.807   2.631   0.064  0.1574  1.1676  0.2381
 2414TIP3    H122909   4.887   2.631   0.012  0.6604 -0.4576  0.9412
 2414TIP3    H222910   4.792   2.724   0.085  0.6878  1.7137 -1.6029
 2415TIP3   OH222911   1.503   2.873   6.502  0.4460  0.6309 -0.7512
 2415TIP3    H122912   1.553   2.862   6.421  1.6863  0.0699  0.0604
 2415TIP3    H222913   1.441   2.943   6.483 -1.6700 -1.6995 -3.2791
 2416TIP3   OH222914   2.436   1.048   6.385  0.1043 -0.3032 -0.3482
 2416TIP3    H122915   2.457   1.080   6.297  0.8930  1.5059  0.4417
 2416TIP3    H222916   2.512   0.995   6.410  1.1675  1.3722  0.2074
 2417TIP3   OH222917   0.796   1.364   6.539  0.2890 -0.5218  0.1167
 2417TIP3    H122918   0.811   1.403   6.453  0.2517  1.2067  0.8597
 2417TIP3    H222919   0.761   1.277   6.519 -0.3312  0.0746 -1.6153
 2418TIP3   OH222920   4.342   5.304   1.270 -0.0174 -0.3222 -0.3915
 2418TIP3    H122921   4.404   5.254   1.323  1.8242  1.0198 -1.1395
 2418TIP3    H222922   4.297   5.239   1.217  0.7293 -1.3561  0.2112
 2419TIP3   OH222923   2.368   4.139   0.879  0.5784  0.0946 -0.0803
 2419TIP3    H122924   2.376   4.076   0.807 -0.7613 -0.3199  0.1076
 2419TIP3    H222925   2.289   4.190   0.858 -0.2496 -0.4970  1.4255
 2420TIP3   OH222926   0.970   0.017   2.571  0.0972  0.6210 -0.4107
 2420TIP3    H122927   0.998  -0.073   2.557 -1.7119 -0.4051  1.8073
 2420TIP3    H222928   0.889   0.024   2.521 -0.8467  0.2858  0.9981
 2421TIP3   OH222929   0.991   0.052   7.080  0.5270 -0.4296  0.3722
 2421TIP3    H122930   0.964   0.053   6.988  1.2790  1.1082  0.1325
 2421TIP3    H222931   0.934   0.117   7.122  1.5258  0.3748  0.5402
 2422TIP3   OH222932   4.642   1.533   1.718  0.5008 -0.0314 -0.1563
 2422TIP3    H122933   4.660   1.540   1.812 -0.5869 -0.8504  0.1351
 2422TIP3    H222934   4.638   1.624   1.688  2.1835  0.2253  0.3007
 2423TIP3   OH222935   0.144   6.140   6.708  0.4491  0.1336 -0.6027
 2423TIP3    H122936   0.180   6.086   6.778 -0.0098  0.6841  0.0769
 2423TIP3    H222937   0.221   6.173   6.661  0.7576 -0.2929 -0.3988
 2424TIP3   OH222938   0.167   4.131   7.078  0.3146 -0.0545  0.3155
 2424TIP3    H122939   0.258   4.102   7.073  0.4015  0.0713  1.0402
 2424TIP3    H222940   0.124   4.067   7.135  0.7346  1.7245  2.7776
 2425TIP3   OH222941   3.464   5.722   1.923 -0.0233 -0.2388  0.5970
 2425TIP3    H122942   3.489   5.636   1.957  1.9542  0.7268  1.7178
 2425TIP3    H222943   3.371   5.711   1.899  0.3577 -2.8715 -0.0399
 2426TIP3   OH222944   2.698   4.475   0.652 -0.0262  0.2202 -0.0261
 2426TIP3    H122945   2.658   4.493   0.567  1.3789  2.8294 -0.2275
 2426TIP3    H222946   2.624   4.458   0.711 -1.3179  2.5398 -0.8822
 2427TIP3   OH222947   4.162   6.292   6.840  0.3365  0.2757 -0.0578
 2427TIP3    H122948   4.257   6.298   6.839  0.4247 -0.4840  1.6572
 2427TIP3    H222949   4.143   6.207   6.799  0.3226  0.7815 -1.1505
 2428TIP3   OH222950   1.220   3.851   2.627  0.3887  0.0201  0.3664
 2428TIP3    H122951   1.135   3.894   2.622  0.6942  0.7395  1.2388
 2428TIP3    H222952   1.281   3.920   2.651  1.5870 -0.0488 -2.1631
 2429TIP3   OH222953   2.073   5.052   2.909  0.3461 -0.9867  0.3320
 2429TIP3    H122954   2.027   5.004   2.841  0.5236 -0.4754 -0.1564
 2429TIP3    H222955   2.023   5.035   2.989  0.3633 -1.9085  0.1566
 2430TIP3   OH222956   3.467   6.304   0.193 -0.0481 -0.2668 -0.1170
 2430TIP3    H122957   3.454   6.339   0.105  1.4959  0.3824 -0.1206
 2430TIP3    H222958   3.542   6.245   0.184  1.4052  1.2947  1.0938
 2431TIP3   OH222959   5.827   5.215   7.077 -0.4494  0.2011  0.5495
 2431TIP3    H122960   5.776   5.146   7.035 -1.1206  1.5174 -0.9067
 2431TIP3    H222961   5.874   5.171   7.147 -1.4419 -1.5791  0.1562
 2432TIP3   OH222962   4.994   1.139   1.051  0.2800 -0.3757  0.4156
 2432TIP3    H122963   5.015   1.049   1.075 -0.1401 -0.4425  0.5516
 2432TIP3    H222964   4.917   1.131   0.994  0.6446 -0.1457 -0.1188
 2433TIP3   OH222965   5.083   2.957   6.046  0.8235  0.7018 -0.1990
 2433TIP3    H122966   5.020   3.029   6.051  1.2030  1.0613 -0.4430
 2433TIP3    H222967   5.112   2.958   5.955  1.1355  0.5010 -0.1025
 2434TIP3   OH222968   1.476   0.555   6.826 -0.2163 -0.0464  0.2703
 2434TIP3    H122969   1.513   0.641   6.804 -0.1306 -0.2619 -0.4535
 2434TIP3    H222970   1.455   0.516   6.741  1.1539 -1.3749  0.5044
 2435TIP3   OH222971   1.747   4.955   1.710  0.5235 -0.9751  0.2757
 2435TIP3    H122972   1.833   4.930   1.675  0.8569  2.6873 -2.1241
 2435TIP3    H222973   1.763   5.041   1.751 -1.9097 -0.3827  0.1190
 2436TIP3   OH222974   0.756   4.685   6.468 -0.4908  0.0952 -0.4033
 2436TIP3    H122975   0.838   4.642   6.443  0.4051  0.5254  1.5641
 2436TIP3    H222976   0.747   4.757   6.406  2.0906  1.6695  0.8464
 2437TIP3   OH222977   2.088   4.573   7.546  0.0110  0.1137  0.5359
 2437TIP3    H122978   2.054   4.583   7.457  0.1632  1.7324  0.6305
 2437TIP3    H222979   2.142   4.494   7.543 -1.8010 -1.1737 -0.2156
 2438TIP3   OH222980   3.170   3.498   1.565 -0.3242 -0.6284  0.3668
 2438TIP3    H122981   3.107   3.550   1.515 -0.9265 -0.8742  0.8524
 2438TIP3    H222982   3.171   3.413   1.522  0.3363 -0.3480 -0.1688
 2439TIP3   OH222983   4.015   1.799   0.965 -0.0090 -0.5089  0.3697
 2439TIP3    H122984   4.085   1.818   1.028  0.2165  0.3391 -0.1285
 2439TIP3    H222985   4.061   1.791   0.881 -0.6156  1.0179 -0.1227
 2440TIP3   OH222986   1.120   3.861   1.563  0.0599  0.4000 -0.0256
 2440TIP3    H122987   1.145   3.891   1.475  2.9518  1.5056  1.0211
 2440TIP3    H222988   1.113   3.766   1.555 -0.2779  0.5278 -1.5541
 2441TIP3   OH222989   2.520   3.535   7.337 -0.1097 -0.0232  0.2028
 2441TIP3    H122990   2.578   3.593   7.285 -0.8776 -0.4869 -1.2196
 2441TIP3    H222991   2.432   3.570   7.322 -0.3257  0.0880  1.5834
 2442TIP3   OH222992   5.634   5.320   1.164 -0.5954 -0.3586 -0.1764
 2442TIP3    H122993   5.595   5.406   1.151 -0.8009 -0.5963 -1.2545
 2442TIP3    H222994   5.582   5.280   1.234  1.1417  1.3417  2.2232
 2443TIP3   OH222995   2.528   5.201   7.489 -0.2156  0.0106 -0.3212
 2443TIP3    H122996   2.556   5.291   7.469 -0.1682  0.1126  0.1815
 2443TIP3    H222997   2.452   5.186   7.433 -2.2821  1.5351  1.8747
 2444TIP3   OH222998   5.038   5.985   1.909 -0.2503  1.4681 -0.1312
 2444TIP3    H122999   5.108   5.957   1.851 -0.2492  0.6294  0.2609
 2444TIP3    H223000   5.081   6.042   1.973 -0.0540  1.5236 -0.3134
 2445TIP3   OH223001   1.962   0.769   0.027  0.4582  0.0591  0.3492
 2445TIP3    H123002   1.879   0.809   0.002  0.0203 -0.2488  1.2608
 2445TIP3    H223003   1.949   0.675   0.013  0.8208  0.0580  0.0237
 2446TIP3   OH223004   1.651   5.058   1.032  0.1122  0.1300 -0.4849
 2446TIP3    H123005   1.625   5.149   1.025 -1.6654 -0.3886 -1.2330
 2446TIP3    H223006   1.726   5.058   1.092 -2.0700  1.7040  2.5146
 2447TIP3   OH223007   3.938   2.909   0.242  0.2014 -0.2047  0.4076
 2447TIP3    H123008   3.857   2.897   0.194  0.5715 -0.0953 -0.2621
 2447TIP3    H223009   3.950   2.828   0.291  0.4037 -0.7913 -0.5919
 2448TIP3   OH223010   5.291   3.607   1.543  0.1417  0.4160 -0.8636
 2448TIP3    H123011   5.317   3.593   1.452  0.4523  0.8151 -0.8400
 2448TIP3    H223012   5.203   3.646   1.537 -0.1735 -0.2987 -0.9634
 2449TIP3   OH223013   4.467   3.439   0.146 -0.6182  0.6312 -0.5640
 2449TIP3    H123014   4.496   3.352   0.174 -0.3547  0.8353 -0.1944
 2449TIP3    H223015   4.471   3.436   0.051  0.8800  0.7339 -0.5292
 2450TIP3   OH223016   4.287   1.259   6.366 -0.0318 -0.1363  0.2309
 2450TIP3    H123017   4.361   1.319   6.379 -0.8851  0.8851  0.5488
 2450TIP3    H223018   4.280   1.251   6.271 -0.6873  1.3130  0.1314
 2451TIP3   OH223019   5.394   4.454   2.567 -0.0936 -0.0008 -0.7901
 2451TIP3    H123020   5.474   4.506   2.560 -0.2137  0.1898 -0.7313
 2451TIP3    H223021   5.337   4.504   2.624 -0.0926 -0.3461 -0.4825
 2452TIP3   OH223022   2.565   4.189   7.480 -0.1786  0.2720  0.1354
 2452TIP3    H123023   2.564   4.176   7.575 -0.5739 -2.3809 -0.1515
 2452TIP3    H223024   2.567   4.100   7.444 -1.2936  1.1759 -2.3621
 2453TIP3   OH223025   3.218   1.167   0.592  0.4870 -0.1393  0.6100
 2453TIP3    H123026   3.150   1.179   0.525  0.1122 -1.1462  0.7900
 2453TIP3    H223027   3.235   1.073   0.591  2.1074  0.1330  0.3561
 2454TIP3   OH223028   5.550   2.027   0.449  0.3909  0.6009  0.4533
 2454TIP3    H123029   5.512   2.010   0.362  1.0167  0.8276  0.1237
 2454TIP3    H223030   5.501   2.101   0.483 -0.9427 -0.4908  0.9954
 2455TIP3   OH223031   1.303   5.682   1.320  0.0322 -0.0974 -0.4188
 2455TIP3    H123032   1.235   5.617   1.337 -0.2701  0.3374  0.0633
 2455TIP3    H223033   1.272   5.762   1.363  2.1495 -0.6347  2.4069
 2456TIP3   OH223034   1.456   3.596   0.408 -0.2150  0.1362 -0.1402
 2456TIP3    H123035   1.419   3.507   0.415 -0.9689  0.5603  1.7902
 2456TIP3    H223036   1.384   3.653   0.435  0.6520  1.2633 -0.1923
 2457TIP3   OH223037   4.908   3.868   6.012  0.5971  0.4495  0.6548
 2457TIP3    H123038   4.950   3.909   5.936  1.6937  0.1938  1.1040
 2457TIP3    H223039   4.824   3.837   5.979  1.4230 -0.4655 -0.7121
 2458TIP3   OH223040   3.661   5.521   0.458  1.5380 -0.7496 -0.0009
 2458TIP3    H123041   3.581   5.555   0.417  1.2696  0.7535  1.6552
 2458TIP3    H223042   3.686   5.446   0.403 -0.9952 -1.2646 -0.5839
 2459TIP3   OH223043   2.474   5.464   1.853  0.0497  0.1294  0.1920
 2459TIP3    H123044   2.556   5.487   1.896  0.5271  0.4188 -0.8222
 2459TIP3    H223045   2.487   5.492   1.762 -1.1481  0.1146  0.0015
 2460TIP3   OH223046   1.750   4.368   1.077  0.4193 -0.2957 -0.4776
 2460TIP3    H123047   1.694   4.291   1.080  1.1064 -0.9240 -2.2970
 2460TIP3    H223048   1.776   4.376   0.985  0.3232  2.1654 -0.3768
 2461TIP3   OH223049   5.836   2.197   0.477  0.0568  0.3487  0.1109
 2461TIP3    H123050   5.902   2.263   0.457  1.4484 -1.2243 -0.7534
 2461TIP3    H223051   5.768   2.210   0.411 -0.8570  2.3376  1.3400
 2462TIP3   OH223052   0.808   2.079   7.398  0.3091  0.3543  0.6429
 2462TIP3    H123053   0.747   2.119   7.460 -2.4567  1.7338 -2.6004
 2462TIP3    H223054   0.752   2.034   7.335  2.5287  2.0427 -2.8298
 2463TIP3   OH223055   0.228   2.970   1.480  0.1519  0.0518  0.7373
 2463TIP3    H123056   0.142   2.985   1.441  0.8937 -0.3418 -1.1742
 2463TIP3    H223057   0.246   3.050   1.529 -0.8666  0.5746  0.2971
 2464TIP3   OH223058   1.984   4.098   0.981 -0.4538  0.5420  0.4318
 2464TIP3    H123059   1.968   4.031   1.047 -0.5819 -0.3519 -0.4963
 2464TIP3    H223060   1.897   4.125   0.952 -0.3947  0.0644 -0.2219
 2465TIP3   OH223061   1.014   0.771   2.894  0.1017  0.1893  0.3944
 2465TIP3    H123062   0.938   0.720   2.922  1.0227 -0.6375  1.4590
 2465TIP3    H223063   0.985   0.862   2.900 -0.6343 -0.0899  1.3439
 2466TIP3   OH223064   6.232   1.628   6.497 -0.2492 -0.0471  0.7602
 2466TIP3    H123065   6.242   1.676   6.579 -1.6135 -0.8698  1.4442
 2466TIP3    H223066   6.221   1.537   6.523  0.6257 -0.5164 -0.4166
 2467TIP3   OH223067   5.077   2.238   0.696 -0.0869  0.0987 -0.6794
 2467TIP3    H123068   5.138   2.180   0.651 -0.2906  0.3130 -1.2460
 2467TIP3    H223069   5.057   2.306   0.632 -0.5486  0.2935 -0.3372
 2468TIP3   OH223070   3.396   1.004   1.593 -0.0068  0.0712 -0.3576
 2468TIP3    H123071   3.465   0.947   1.626  0.7667  0.0269 -1.9482
 2468TIP3    H223072   3.363   0.959   1.515 -1.0540  0.6416 -0.2617
 2469TIP3   OH223073   4.007   2.588   0.789 -0.3363  0.3496 -0.5864
 2469TIP3    H123074   3.986   2.614   0.879  1.8035  0.2437  0.0043
 2469TIP3    H223075   4.001   2.492   0.790 -0.6774  0.3677 -0.6737
 2470TIP3   OH223076   5.080   0.010   1.492 -0.3246  0.1021 -0.4173
 2470TIP3    H123077   4.990   0.023   1.521 -0.6161 -1.5852 -0.4519
 2470TIP3    H223078   5.072  -0.025   1.403  0.5063  3.3999 -1.9352
 2471TIP3   OH223079   6.271   2.995   1.410  0.0572 -0.0370 -0.3618
 2471TIP3    H123080   6.182   3.028   1.420  0.1682  1.1655 -2.6311
 2471TIP3    H223081   6.261   2.908   1.373 -0.2090  0.4900 -1.5780
 2472TIP3   OH223082   5.547   5.410   0.026  0.1388  0.4633  0.1096
 2472TIP3    H123083   5.641   5.389   0.027  0.2954  1.1120 -0.4097
 2472TIP3    H223084   5.516   5.385   0.113  0.1596 -2.5448 -0.6342
 2473TIP3   OH223085   0.196   4.804   7.477 -0.0813 -0.1067  0.3990
 2473TIP3    H123086   0.174   4.891   7.510 -2.2885 -0.5464  0.2435
 2473TIP3    H223087   0.152   4.744   7.538  0.3947 -1.0787 -0.1902
 2474TIP3   OH223088   3.752   4.616   7.040  0.0347  0.1273  0.2719
 2474TIP3    H123089   3.804   4.648   6.967 -1.4909  0.8063 -0.5600
 2474TIP3    H223090   3.791   4.531   7.062  1.5533  0.6660 -0.2068
 2475TIP3   OH223091   0.323   4.251   0.290  0.1225 -0.6224 -0.3501
 2475TIP3    H123092   0.256   4.222   0.351 -0.2082  0.3984 -0.2072
 2475TIP3    H223093   0.320   4.187   0.219 -0.1330 -1.2886  0.2439
 2476TIP3   OH223094   3.995   5.653   2.218 -0.2515  0.0531  0.5150
 2476TIP3    H123095   3.920   5.686   2.267 -0.6954 -0.5705  0.2593
 2476TIP3    H223096   4.069   5.662   2.278 -0.7252 -0.3804  1.1695
 2477TIP3   OH223097   2.189   0.377   2.279  0.3154  0.1689  0.4055
 2477TIP3    H123098   2.139   0.296   2.288  1.2002 -0.3095  1.0865
 2477TIP3    H223099   2.137   0.443   2.325  0.2583 -0.2962  1.0100
 2478TIP3   OH223100   2.648   0.489   1.097  0.2680  0.0388 -0.4424
 2478TIP3    H123101   2.554   0.471   1.100  0.3155 -0.1335  1.1705
 2478TIP3    H223102   2.667   0.531   1.181  1.3657  1.5319 -1.3886
 2479TIP3   OH223103   2.732   5.785   7.027  0.3193 -0.7076  0.3555
 2479TIP3    H123104   2.786   5.713   7.060  1.2182  0.1616  0.8225
 2479TIP3    H223105   2.698   5.827   7.106  1.0242  0.2854  0.1455
 2480TIP3   OH223106   2.991   6.098   0.038  0.0224  0.1295 -0.3912
 2480TIP3    H123107   2.955   6.025   0.088  1.1554 -1.5875 -1.9114
 2480TIP3    H223108   3.048   6.144   0.099 -1.9784  0.7924  1.0564
 2481TIP3   OH223109   5.457   2.322   7.110 -0.0828  0.1373  0.4599
 2481TIP3    H123110   5.479   2.399   7.057  2.2686 -0.4739  0.3953
 2481TIP3    H223111   5.510   2.332   7.189  1.4729 -2.0747 -0.1989
 2482TIP3   OH223112   3.849   3.530   2.669  0.2109 -0.3779 -0.0479
 2482TIP3    H123113   3.933   3.490   2.693  1.2054  0.4604 -1.9426
 2482TIP3    H223114   3.806   3.462   2.616  0.9053  0.1324 -1.3279
 2483TIP3   OH223115   1.707   5.993   6.569  0.1733  0.3204  0.0311
 2483TIP3    H123116   1.754   6.048   6.506  1.2233  1.0464  1.3828
 2483TIP3    H223117   1.653   6.054   6.620 -1.3375 -0.3605 -0.6886
 2484TIP3   OH223118   0.279   4.936   1.243  0.7656  0.2406  0.5713
 2484TIP3    H123119   0.354   4.916   1.186 -0.3113  0.5086 -1.0234
 2484TIP3    H223120   0.231   5.004   1.195 -1.0692 -0.6697  1.0144
 2485TIP3   OH223121   4.348   4.434   6.906 -0.6212  0.1401  0.0747
 2485TIP3    H123122   4.369   4.343   6.882  0.6392  0.5357 -0.4249
 2485TIP3    H223123   4.396   4.449   6.987 -0.9691  0.2961  0.2493
 2486TIP3   OH223124   0.236   3.631   7.059 -0.4487  0.7530  0.2094
 2486TIP3    H123125   0.286   3.706   7.089  0.9912  1.0776 -2.6255
 2486TIP3    H223126   0.163   3.669   7.009  0.0821  0.3252 -0.9311
 2487TIP3   OH223127   4.492   1.178   2.146 -0.3249  0.2907  0.1586
 2487TIP3    H123128   4.463   1.150   2.233 -1.4289 -0.2039 -0.3497
 2487TIP3    H223129   4.490   1.274   2.150  0.9714  0.3014  1.0992
 2488TIP3   OH223130   0.579   1.297   0.098 -0.2494  0.2040 -0.4901
 2488TIP3    H123131   0.491   1.284   0.063  0.5676 -0.5911 -2.4320
 2488TIP3    H223132   0.625   1.345   0.029  1.1659 -0.4556 -0.0450
 2489TIP3   OH223133   2.466   0.279   2.154  0.0132 -0.5844 -0.4763
 2489TIP3    H123134   2.505   0.362   2.183 -1.5385  0.1738 -0.4681
 2489TIP3    H223135   2.385   0.305   2.110 -1.3293 -2.1974  0.9163
 2490TIP3   OH223136   1.031   4.437   1.186  0.1298  0.5279  0.2541
 2490TIP3    H123137   0.971   4.506   1.158 -0.1018  1.0163  1.8723
 2490TIP3    H223138   1.073   4.471   1.265  2.6742  0.2535 -0.8912
 2491TIP3   OH223139   6.010   3.001   7.295 -0.7977  0.6285  0.0203
 2491TIP3    H123140   5.955   3.056   7.352  0.3251  1.9955 -0.1696
 2491TIP3    H223141   6.099   3.016   7.326 -0.3425 -0.1274 -0.8721
 2492TIP3   OH223142   1.691   1.703   2.326 -0.1963 -0.1128  0.0824
 2492TIP3    H123143   1.735   1.716   2.410  0.2875  1.0439 -0.3176
 2492TIP3    H223144   1.615   1.761   2.330  0.5544  0.9668 -0.7619
 2493TIP3   OH223145   4.348   5.000   7.093 -0.0507  0.0130 -0.6506
 2493TIP3    H123146   4.281   4.940   7.060 -0.4069 -0.6003  1.0688
 2493TIP3    H223147   4.408   4.944   7.142  0.4605  0.8652 -0.2935
 2494TIP3   OH223148   6.105   1.062   0.196  0.6732  0.3393  0.3026
 2494TIP3    H123149   6.186   1.095   0.158  1.2988 -1.7901 -0.3619
 2494TIP3    H223150   6.134   1.012   0.273  0.5647 -3.5432 -1.8970
 2495TIP3   OH223151   6.203   3.278   0.031 -0.2956  0.0379 -0.2040
 2495TIP3    H123152   6.204   3.313   0.120 -0.5071  1.3965 -0.7198
 2495TIP3    H223153   6.295   3.281   0.003  0.1825 -2.6230  0.7646
 2496TIP3   OH223154   5.107   2.207   2.322 -0.0051  0.0158  0.0044
 2496TIP3    H123155   5.176   2.222   2.387 -1.0456 -0.9986  1.4029
 2496TIP3    H223156   5.045   2.149   2.366 -0.7007 -0.8062 -1.9483
 2497TIP3   OH223157   6.138   3.363   2.714  1.0538  0.5058  0.0334
 2497TIP3    H123158   6.183   3.376   2.631  1.2675 -0.9668 -0.1189
 2497TIP3    H223159   6.125   3.268   2.719  2.1575  0.3901  2.2395
 2498TIP3   OH223160   5.618   2.448   7.693 -0.3237  0.7588  0.4559
 2498TIP3    H123161   5.662   2.528   7.664  0.5590 -0.2248 -1.1036
 2498TIP3    H223162   5.588   2.407   7.611  0.5392 -1.2018  1.0538
 2499TIP3   OH223163   1.911   5.704   7.245  0.0046  0.1918 -0.3060
 2499TIP3    H123164   1.841   5.770   7.249  0.2727  0.5672 -1.3211
 2499TIP3    H223165   1.992   5.755   7.241  0.2344 -0.1980 -0.7996
 2500TIP3   OH223166   1.708   5.451   7.685  0.2629 -0.1221  0.3033
 2500TIP3    H123167   1.792   5.465   7.640 -1.0000 -0.2235 -2.2878
 2500TIP3    H223168   1.658   5.396   7.624 -1.5570 -0.3721  1.9485
 2501TIP3   OH223169   5.793   3.350   0.762  0.0820  0.0864 -0.2732
 2501TIP3    H123170   5.805   3.279   0.699 -1.3696  0.4660 -1.0480
 2501TIP3    H223171   5.724   3.404   0.723 -1.2602  0.0467  1.8816
 2502TIP3   OH223172   3.303   4.485   7.269  0.3083 -0.2461  0.4572
 2502TIP3    H123173   3.291   4.391   7.262  0.4850 -0.1542 -1.8652
 2502TIP3    H223174   3.396   4.497   7.286  0.1641 -0.4767  1.4912
 2503TIP3   OH223175   0.480   0.160   0.412  0.0227  0.4621 -0.0271
 2503TIP3    H123176   0.540   0.217   0.365  0.1280  0.1680 -0.2526
 2503TIP3    H223177   0.492   0.073   0.372  1.1154 -0.1091  1.4470
 2504TIP3   OH223178   2.632   4.013   1.862  0.3278 -0.2908  0.1255
 2504TIP3    H123179   2.638   3.918   1.864 -0.5886 -0.4003  3.2804
 2504TIP3    H223180   2.712   4.043   1.906 -0.0015  0.3272  0.3137
 2505TIP3   OH223181   3.897   1.262   6.260  0.4680  0.2861 -0.6771
 2505TIP3    H123182   3.932   1.344   6.227 -0.2971  0.2733 -1.5812
 2505TIP3    H223183   3.931   1.196   6.199  0.7738 -0.0171 -0.1787
 2506TIP3   OH223184   5.896   3.031   2.285  0.3220  0.2162  0.3801
 2506TIP3    H123185   5.844   2.961   2.244 -0.4741  0.0122  1.6988
 2506TIP3    H223186   5.919   2.996   2.371 -1.5769  2.2222  1.7936
 2507TIP3   OH223187   5.657   2.192   0.684  0.3645 -0.0801  0.5847
 2507TIP3    H123188   5.704   2.175   0.603  2.2977  0.2046  1.5936
 2507TIP3    H223189   5.590   2.256   0.660  0.6884 -0.2395 -0.8401
 2508TIP3   OH223190   1.825   4.202   1.891 -0.5559  0.2498 -0.4712
 2508TIP3    H123191   1.808   4.244   1.976  0.0942  0.7594 -0.5829
 2508TIP3    H223192   1.797   4.266   1.826 -1.1920 -0.2012 -0.6507
 2509TIP3   OH223193   4.786   2.183   1.129  0.1600 -0.1682 -0.6190
 2509TIP3    H123194   4.870   2.207   1.090  1.0825  0.1238  1.4002
 2509TIP3    H223195   4.750   2.264   1.164 -0.0791 -0.5720  0.1120
 2510TIP3   OH223196   5.867   4.189   7.229  0.0905  0.0523 -0.1356
 2510TIP3    H123197   5.785   4.190   7.180  0.5895  1.2569 -1.0070
 2510TIP3    H223198   5.923   4.252   7.183  1.8753 -1.4967 -0.1922
 2511TIP3   OH223199   5.360   5.630   0.312  0.1621 -0.0271  0.3128
 2511TIP3    H123200   5.445   5.617   0.353  0.6644  2.6473  0.3456
 2511TIP3    H223201   5.362   5.722   0.283 -2.5806  0.0229  0.0264
 2512TIP3   OH223202   1.256   6.235   6.176 -0.3003 -0.0231  0.5849
 2512TIP3    H123203   1.210   6.315   6.199  1.3427  1.1759 -0.1224
 2512TIP3    H223204   1.305   6.257   6.097 -1.4171 -2.3549 -0.8763
 2513TIP3   OH223205   5.703   1.210   6.008 -0.5356 -0.1089  0.0728
 2513TIP3    H123206   5.727   1.303   6.004 -0.4603 -0.1471 -3.1105
 2513TIP3    H223207   5.774   1.165   5.962 -1.3086 -1.5454  0.2338
 2514TIP3   OH223208   4.266   2.294   0.614 -0.3574 -0.2365  0.1866
 2514TIP3    H123209   4.183   2.320   0.574 -0.1117  1.1806  0.5506
 2514TIP3    H223210   4.240   2.247   0.693 -0.8214 -0.0159  0.1719
 2515TIP3   OH223211   3.172   0.759   7.417 -0.6703 -0.2543  0.1661
 2515TIP3    H123212   3.251   0.792   7.458 -1.9333  2.4104  0.6948
 2515TIP3    H223213   3.165   0.668   7.446  1.3101 -0.0673  1.3826
 2516TIP3   OH223214   4.807   0.883   5.361  0.7026  0.3715  0.2182
 2516TIP3    H123215   4.824   0.887   5.267  1.5403  0.7752  0.3746
 2516TIP3    H223216   4.712   0.886   5.369  0.4486 -2.1800 -0.7444
 2517TIP3   OH223217   3.931   0.162   0.725  0.0231 -0.1385 -0.2903
 2517TIP3    H123218   4.013   0.114   0.741 -0.5611 -1.6813 -1.6783
 2517TIP3    H223219   3.899   0.128   0.642 -0.5600  2.5521 -1.2817
 2518TIP3   OH223220   2.245   0.483   6.470  0.6070  0.1944  0.0620
 2518TIP3    H123221   2.224   0.568   6.509  0.4440  0.7121 -1.1043
 2518TIP3    H223222   2.190   0.479   6.392  0.6919 -0.9511  0.0465
 2519TIP3   OH223223   0.495   2.599   6.318 -0.5283 -0.4474 -0.1883
 2519TIP3    H123224   0.536   2.542   6.254  2.2529  1.0957  0.0908
 2519TIP3    H223225   0.417   2.633   6.273 -0.0627 -1.3743 -1.7657
 2520TIP3   OH223226   0.132   1.167   7.469  0.2601 -0.5913  0.1403
 2520TIP3    H123227   0.171   1.251   7.494  1.4029 -1.6459  2.1786
 2520TIP3    H223228   0.041   1.188   7.449  0.6966  1.2253 -0.1368
 2521TIP3   OH223229   5.486   0.968   6.821  0.2861  0.5574  0.2541
 2521TIP3    H123230   5.466   1.060   6.836  0.1903  0.3964  1.1512
 2521TIP3    H223231   5.402   0.928   6.798 -0.5208 -0.0689  3.7706
 2522TIP3   OH223232   5.718   3.086   2.755  0.0567  0.0135 -0.0971
 2522TIP3    H123233   5.739   3.137   2.834 -0.6391 -0.5134  0.4455
 2522TIP3    H223234   5.623   3.097   2.745  0.3359  1.2694 -1.7203
 2523TIP3   OH223235   0.151   4.085   6.785 -0.2229  0.5367 -0.6022
 2523TIP3    H123236   0.120   4.081   6.875 -1.4744  1.5548 -0.9691
 2523TIP3    H223237   0.072   4.090   6.732  0.5071  0.4247 -1.7475
 2524TIP3   OH223238   4.986   1.081   7.008 -0.0547 -0.3749 -0.3158
 2524TIP3    H123239   4.910   1.046   6.961  0.6348 -0.5048 -1.3753
 2524TIP3    H223240   5.030   1.137   6.944  0.7566 -0.3075  0.2793
 2525TIP3   OH223241   5.375   6.147   0.848 -0.1665 -0.1124 -0.3981
 2525TIP3    H123242   5.314   6.100   0.791 -0.9365  1.2638 -0.7406
 2525TIP3    H223243   5.327   6.159   0.930  0.5663 -1.1824  0.2141
 2526TIP3   OH223244   4.666   5.837   0.653 -0.1400  0.5932 -0.8734
 2526TIP3    H123245   4.591   5.780   0.670 -0.7504  1.1244 -1.6544
 2526TIP3    H223246   4.721   5.788   0.592  0.1833  0.1740 -0.2460
 2527TIP3   OH223247   6.108   0.922   6.952  0.6299 -0.5616 -0.2216
 2527TIP3    H123248   6.104   0.948   7.044 -0.1206  0.3905 -0.5160
 2527TIP3    H223249   6.177   0.978   6.915  1.1096 -1.1226 -0.1939
 2528TIP3   OH223250   4.709   0.496   7.317 -0.1751 -0.2910 -0.5531
 2528TIP3    H123251   4.704   0.420   7.374 -1.0949  0.3604  0.2631
 2528TIP3    H223252   4.620   0.531   7.316  0.3481  1.0931 -0.4603
 2529TIP3   OH223253   2.027   0.129   2.292 -0.4245 -0.0141 -0.0797
 2529TIP3    H123254   2.032   0.065   2.363  0.7270 -1.4358 -1.3637
 2529TIP3    H223255   1.941   0.170   2.302 -1.5648 -2.3212  0.3521
 2530TIP3   OH223256   3.736   2.486   7.557 -0.3886  0.0238 -0.6024
 2530TIP3    H123257   3.742   2.440   7.473  0.5415  0.1567 -0.6168
 2530TIP3    H223258   3.721   2.577   7.534 -0.0195  0.0784 -0.6283
 2531TIP3   OH223259   1.174   5.177   1.695  0.5104  0.2765 -0.7047
 2531TIP3    H123260   1.166   5.272   1.704  2.2436  0.5117 -1.2478
 2531TIP3    H223261   1.265   5.159   1.718  0.3491 -1.1917 -1.1606
 2532TIP3   OH223262   3.381   5.391   0.544  0.2183 -0.1685  0.2790
 2532TIP3    H123263   3.430   5.473   0.534 -0.6828  0.2806 -0.6177
 2532TIP3    H223264   3.443   5.323   0.521  0.9234  0.2765  0.8354
 2533TIP3   OH223265   2.158   5.865   7.473 -0.3744  0.3868  0.3892
 2533TIP3    H123266   2.178   5.773   7.453  0.4920  0.9050 -1.3764
 2533TIP3    H223267   2.190   5.878   7.562 -1.0172 -1.1589  0.8755
 2534TIP3   OH223268   5.995   4.503   7.361  0.1842 -0.0264 -0.0473
 2534TIP3    H123269   5.961   4.559   7.431 -0.1015 -2.0182  1.5199
 2534TIP3    H223270   5.980   4.553   7.281  0.2115  2.2192  1.2595
 2535TIP3   OH223271   2.375   4.342   1.477  0.0384  0.5788  0.1308
 2535TIP3    H123272   2.300   4.376   1.429  0.4291  2.2692  0.6645
 2535TIP3    H223273   2.451   4.382   1.435  0.5257  0.2813  0.7142
 2536TIP3   OH223274   6.253   1.530   7.472  0.8652  0.5693  0.1694
 2536TIP3    H123275   6.230   1.603   7.415  0.8646  0.7691  0.4246
 2536TIP3    H223276   6.169   1.502   7.509  0.2368 -2.0367 -2.8238
 2537TIP3   OH223277   4.679   0.427   1.576  0.3290 -0.4883  0.0267
 2537TIP3    H123278   4.595   0.392   1.607  0.5808  0.1082  1.4983
 2537TIP3    H223279   4.655   0.487   1.506 -0.3342 -1.4159 -0.5745
 2538TIP3   OH223280   0.839   1.307   2.761  0.5244 -0.3808 -0.1393
 2538TIP3    H123281   0.804   1.359   2.833 -0.7773  0.5875 -1.4136
 2538TIP3    H223282   0.840   1.366   2.686  1.7367 -1.3905 -0.9732
 2539TIP3   OH223283   0.969   2.243   1.343  0.5337  0.7072 -0.3485
 2539TIP3    H123284   1.020   2.180   1.395  0.3842  0.0090 -1.0207
 2539TIP3    H223285   1.021   2.255   1.263  0.7354  1.7250 -0.0716
 2540TIP3   OH223286   4.333   2.624   1.075  0.3749  0.1643 -0.0186
 2540TIP3    H123287   4.311   2.540   1.034 -0.0110  0.3512 -0.1994
 2540TIP3    H223288   4.400   2.661   1.018  0.8346 -0.2028  0.2826
 2541TIP3   OH223289   2.396   1.952   7.363  0.4716 -0.4332 -0.0001
 2541TIP3    H123290   2.491   1.944   7.363  0.4316 -0.9322  0.1822
 2541TIP3    H223291   2.365   1.872   7.405 -0.0834 -0.9250 -1.2863
 2542TIP3   OH223292   2.005   4.060   1.490 -0.2738  0.6329  0.3556
 2542TIP3    H123293   2.057   4.096   1.419  0.3661  0.2635  0.6308
 2542TIP3    H223294   1.985   3.971   1.463 -1.4433  1.0239 -0.1061
 2543TIP3   OH223295   2.308   2.974   2.025  0.1984 -0.3008  0.1100
 2543TIP3    H123296   2.254   2.912   1.976 -0.2276 -1.0923  1.5447
 2543TIP3    H223297   2.371   2.920   2.072  0.9043  0.4816  0.0900
 2544TIP3   OH223298   1.167   3.218   0.286 -0.7512 -0.1335 -0.2055
 2544TIP3    H123299   1.177   3.281   0.358 -1.3104  0.1023 -0.3274
 2544TIP3    H223300   1.205   3.263   0.210  0.7742 -0.7800  0.1337
 2545TIP3   OH223301   5.753   3.285   6.487  0.0445  0.6922  0.0641
 2545TIP3    H123302   5.795   3.304   6.571  0.6784  0.6654 -0.2428
 2545TIP3    H223303   5.817   3.311   6.422  0.2984 -0.9919 -0.3888
 2546TIP3   OH223304   5.271   3.858   1.776  0.0399 -0.2916 -0.0857
 2546TIP3    H123305   5.302   3.916   1.846  0.6133  0.5520 -1.0211
 2546TIP3    H223306   5.328   3.782   1.780 -0.8794 -0.9521  1.3218
 2547TIP3   OH223307   1.962   3.235   6.472 -0.0248 -0.2350  0.2980
 2547TIP3    H123308   2.014   3.251   6.394  1.6936 -0.0389  1.4312
 2547TIP3    H223309   1.877   3.274   6.453  0.9619  1.5346 -0.7450
 2548TIP3   OH223310   0.430   1.393   1.202 -0.0684  0.4312 -0.0022
 2548TIP3    H123311   0.413   1.441   1.121 -0.4189  0.7340  0.2442
 2548TIP3    H223312   0.525   1.382   1.204  0.0354  1.2549  0.0072
 2549TIP3   OH223313   3.261   0.528   5.605  0.6646  0.2757 -0.5646
 2549TIP3    H123314   3.187   0.498   5.658  1.3720  1.6210  1.2847
 2549TIP3    H223315   3.338   0.491   5.648  1.1884  0.1555 -1.5722
 2550TIP3   OH223316   0.095   5.588   0.704  0.1960  0.2562  0.0619
 2550TIP3    H123317   0.180   5.559   0.673  0.2776  0.1835  0.3497
 2550TIP3    H223318   0.110   5.678   0.734  0.1389  0.2931 -0.0182
 2551TIP3   OH223319   5.319   4.682   1.774  0.4054 -0.1266 -0.4222
 2551TIP3    H123320   5.266   4.714   1.847  0.1592  2.4194 -1.6186
 2551TIP3    H223321   5.271   4.605   1.742 -0.3144 -0.3313  1.0552
 2552TIP3   OH223322   6.095   1.726   5.986 -0.3881 -0.7117  0.3351
 2552TIP3    H123323   6.003   1.750   5.983 -0.3298 -0.5896 -0.8870
 2552TIP3    H223324   6.101   1.644   5.938  0.6327  1.0967 -2.9834
 2553TIP3   OH223325   2.048   2.077   0.828 -0.4024  0.3176  0.0094
 2553TIP3    H123326   1.967   2.114   0.793 -1.1710 -2.7112 -1.6939
 2553TIP3    H223327   2.045   2.097   0.922 -1.3108  3.2837 -0.5237
 2554TIP3   OH223328   0.642   4.738   1.227  0.1841  0.2331  0.6122
 2554TIP3    H123329   0.656   4.796   1.301 -0.0621  0.9342  0.1182
 2554TIP3    H223330   0.678   4.654   1.255 -0.7917  0.2146  1.8858
 2555TIP3   OH223331   3.548   2.795   1.120 -0.5346  0.2344 -0.4072
 2555TIP3    H123332   3.463   2.839   1.129 -1.4661 -1.2945 -1.2056
 2555TIP3    H223333   3.549   2.764   1.029 -0.0371 -1.5598  0.1802
 2556TIP3   OH223334   0.957   3.064   6.069 -0.0052  0.0085  0.7946
 2556TIP3    H123335   0.935   2.991   6.012 -1.9478  0.3097  1.1001
 2556TIP3    H223336   0.890   3.130   6.052  0.9618  1.2160  1.4519
 2557TIP3   OH223337   4.930   5.372   6.092  0.3701  0.0334  0.6567
 2557TIP3    H123338   5.003   5.384   6.032  0.8647  0.0796  1.2501
 2557TIP3    H223339   4.908   5.279   6.086 -1.5254  0.5451 -1.7610
 2558TIP3   OH223340   6.093   5.815   1.245 -0.2804  0.2057  0.2153
 2558TIP3    H123341   6.129   5.901   1.222  0.4896  0.1365  1.0774
 2558TIP3    H223342   6.000   5.832   1.262 -0.3042  0.7151 -0.3890
 2559TIP3   OH223343   3.075   2.337   7.253 -0.1717 -0.1163  0.0834
 2559TIP3    H123344   3.074   2.304   7.343 -2.4422  0.3447  0.3127
 2559TIP3    H223345   3.129   2.275   7.204  1.8895  0.1351  1.9136
 2560TIP3   OH223346   4.798   4.484   7.592 -0.2771  0.0158 -0.1278
 2560TIP3    H123347   4.828   4.480   7.501  0.2935 -1.0253  0.0896
 2560TIP3    H223348   4.777   4.576   7.606 -3.1777 -0.1975 -2.1643
 2561TIP3   OH223349   2.528   5.795   6.847  0.2865  0.2072 -0.0779
 2561TIP3    H123350   2.611   5.803   6.893  0.8103 -0.9637 -0.7876
 2561TIP3    H223351   2.498   5.706   6.864 -0.4335  0.3573 -0.4888
 2562TIP3   OH223352   4.068   0.468   5.966  0.4063 -0.3896 -0.7046
 2562TIP3    H123353   4.017   0.476   6.046  2.9381 -0.7091  1.0745
 2562TIP3    H223354   4.070   0.374   5.948  2.2450 -0.6741  0.6564
 2563TIP3   OH223355   3.121   5.386   0.435  0.2963  0.2867 -0.4505
 2563TIP3    H123356   3.194   5.366   0.493  0.6745  1.6212 -0.4560
 2563TIP3    H223357   3.147   5.347   0.351 -0.9639 -3.1157  0.5360
 2564TIP3   OH223358   2.469   5.696   7.676  0.1467  0.0846  0.2664
 2564TIP3    H123359   2.557   5.735   7.675 -0.4517  1.6397 -2.3411
 2564TIP3    H223360   2.417   5.756   7.730  0.0182  0.9653 -0.8106
 2565TIP3   OH223361   0.501   0.689   0.757 -0.8960  0.0379  0.2883
 2565TIP3    H123362   0.482   0.770   0.709 -0.9585 -0.7179 -1.0139
 2565TIP3    H223363   0.562   0.715   0.826  0.3755  0.9269 -1.1253
 2566TIP3   OH223364   2.085   1.176   1.811  0.1983  0.1247  0.3830
 2566TIP3    H123365   2.012   1.127   1.849 -0.0043  1.2329  1.4750
 2566TIP3    H223366   2.062   1.268   1.824  1.5691  0.4995  0.3260
 2567TIP3   OH223367   1.512   3.225   0.373  0.5752  0.1936 -0.0285
 2567TIP3    H123368   1.535   3.155   0.434  0.1335 -0.7401 -0.9072
 2567TIP3    H223369   1.438   3.270   0.415  1.6530  0.9694  1.1319
 2568TIP3   OH223370   2.283   5.488   2.047 -0.1132  1.1546 -0.5258
 2568TIP3    H123371   2.319   5.410   2.089 -1.5073  1.9182  2.3451
 2568TIP3    H223372   2.335   5.498   1.967  1.2060 -1.7245 -0.1644
 2569TIP3   OH223373   3.392   4.549   6.628 -0.0487  0.1592  0.0033
 2569TIP3    H123374   3.401   4.586   6.540 -3.2323  0.7451 -0.1682
 2569TIP3    H223375   3.343   4.614   6.677 -1.5570 -1.7065  1.1087
 2570TIP3   OH223376   4.727   4.520   1.950 -0.3706 -0.2541 -0.5977
 2570TIP3    H123377   4.755   4.439   1.992 -1.6270  0.0070  0.8440
 2570TIP3    H223378   4.650   4.497   1.899 -1.8350  0.2622  1.2344
 2571TIP3   OH223379   0.944   0.264   6.453 -0.4217  0.2613  0.0994
 2571TIP3    H123380   0.884   0.335   6.431  2.2400  3.2154  1.7155
 2571TIP3    H223381   0.932   0.250   6.547  0.7624  0.2724  0.2648
 2572TIP3   OH223382   4.202   4.882   7.714  0.0939  0.0595  0.1305
 2572TIP3    H123383   4.286   4.907   7.675  1.1847 -0.3271  2.0931
 2572TIP3    H223384   4.175   4.805   7.665  1.2248 -0.2009 -0.1122
 2573TIP3   OH223385   4.231   4.232   7.328  0.4465 -0.3609  0.5027
 2573TIP3    H123386   4.149   4.196   7.293  0.0848  1.5893 -0.7964
 2573TIP3    H223387   4.210   4.255   7.418 -0.5928  0.4484  0.0845
 2574TIP3   OH223388   1.709   2.910   7.366  0.8306  0.1881 -0.1840
 2574TIP3    H123389   1.704   2.990   7.313  0.1235 -0.0836 -0.5435
 2574TIP3    H223390   1.708   2.941   7.457 -2.2383  0.5440 -0.2125
 2575TIP3   OH223391   3.657   2.709   6.795 -0.1154  0.4667 -0.6945
 2575TIP3    H123392   3.697   2.640   6.848 -0.0913 -1.2658 -2.8633
 2575TIP3    H223393   3.729   2.769   6.775  0.7663 -0.9562 -1.9592
 2576TIP3   OH223394   2.250   4.967   0.856 -0.4748  0.2965  0.4110
 2576TIP3    H123395   2.312   4.899   0.881 -1.9966 -0.7460  1.4801
 2576TIP3    H223396   2.274   5.042   0.911 -0.7999 -0.4429  1.6062
 2577TIP3   OH223397   4.285   3.532   7.474  0.2263 -0.1299  0.1839
 2577TIP3    H123398   4.355   3.581   7.515  1.0912  0.6657 -2.0667
 2577TIP3    H223399   4.248   3.592   7.409 -1.8246 -0.9043  0.5380
 2578TIP3   OH223400   3.313   0.339   7.634 -0.3602 -0.2407  0.5300
 2578TIP3    H123401   3.263   0.376   7.707  0.1574 -0.8064  1.1742
 2578TIP3    H223402   3.397   0.384   7.637 -0.1937 -0.5470  0.5336
 2579TIP3   OH223403   0.958   0.409   6.916 -0.0188  0.6746 -0.2439
 2579TIP3    H123404   1.051   0.421   6.932 -0.3652  0.8787  1.9707
 2579TIP3    H223405   0.954   0.352   6.839  1.8663  2.1279 -1.5151
 2580TIP3   OH223406   3.817   0.957   0.733 -0.7186 -0.0245  0.4555
 2580TIP3    H123407   3.764   0.919   0.803 -1.3376  1.5893  0.8947
 2580TIP3    H223408   3.804   1.051   0.741 -0.1514  0.2381 -1.3426
 2581TIP3   OH223409   1.712   4.962   0.012 -0.0249 -0.4244  0.3176
 2581TIP3    H123410   1.698   4.867   0.003  1.5764 -0.6644 -0.0572
 2581TIP3    H223411   1.807   4.971   0.021 -0.2199  1.1020  1.1524
 2582TIP3   OH223412   4.028   2.026   2.024 -0.4946 -0.2298  0.0793
 2582TIP3    H123413   4.035   1.941   1.979 -1.4668  0.7915 -2.1035
 2582TIP3    H223414   4.119   2.052   2.038 -0.1692 -1.6334  0.8870
 2583TIP3   OH223415   0.986   2.832   6.560 -0.1545 -0.6666 -0.1726
 2583TIP3    H123416   1.001   2.843   6.466  1.6033  1.4020  0.2610
 2583TIP3    H223417   1.036   2.754   6.584  0.7018 -0.2958 -0.7087
 2584TIP3   OH223418   5.204   3.798   0.229 -0.3055 -0.4237  0.1209
 2584TIP3    H123419   5.241   3.880   0.261 -0.6527 -0.3671  0.3815
 2584TIP3    H223420   5.177   3.751   0.308 -0.5829 -0.5608 -0.0547
 2585TIP3   OH223421   0.222   5.115   0.833 -0.1355 -0.0665  0.3090
 2585TIP3    H123422   0.197   5.071   0.751  4.1154  0.3831 -1.4628
 2585TIP3    H223423   0.178   5.200   0.829 -0.9464 -0.5163 -0.9141
 2586TIP3   OH223424   0.997   4.541   0.247  0.0933 -0.0807  0.3086
 2586TIP3    H123425   1.058   4.613   0.235 -0.4523  0.1351 -1.3714
 2586TIP3    H223426   1.048   4.472   0.289  1.8103 -0.3278 -2.0496
 2587TIP3   OH223427   3.895   6.247   2.012 -0.6477 -0.2939  0.5172
 2587TIP3    H123428   3.972   6.222   2.063  0.3510 -0.9811 -1.2561
 2587TIP3    H223429   3.822   6.210   2.061  0.3107 -1.3347  1.2318
 2588TIP3   OH223430   2.224   1.202   6.456 -0.5721 -0.4700  0.0736
 2588TIP3    H123431   2.296   1.155   6.415 -1.4089  0.0620 -2.1539
 2588TIP3    H223432   2.264   1.280   6.493  0.0817 -0.4083 -0.7299
 2589TIP3   OH223433   3.443   1.782   0.694  0.2044  0.0306  0.0321
 2589TIP3    H123434   3.361   1.780   0.644  0.5888 -0.0596 -0.6063
 2589TIP3    H223435   3.429   1.851   0.759 -0.8561 -0.8614  0.7807
 2590TIP3   OH223436   4.928   4.042   7.541 -0.0377  0.1439  0.0148
 2590TIP3    H123437   4.997   3.980   7.563  1.2373  1.4289 -0.2009
 2590TIP3    H223438   4.966   4.128   7.561 -2.2276  0.8206  1.6324
 2591TIP3   OH223439   3.894   4.420   1.782 -0.4234  0.0653  1.0857
 2591TIP3    H123440   3.817   4.465   1.817 -0.1002  0.9093  0.7459
 2591TIP3    H223441   3.966   4.482   1.795  0.4100 -1.1085  2.3226
 2592TIP3   OH223442   2.705   3.530   1.423  0.0697  0.5115  0.0784
 2592TIP3    H123443   2.712   3.445   1.380  1.5476  0.9215 -0.5505
 2592TIP3    H223444   2.616   3.559   1.403 -0.9174 -1.4115  1.3751
 2593TIP3   OH223445   4.535   3.857   1.709  0.2588 -0.4117 -0.2358
 2593TIP3    H123446   4.563   3.820   1.625  0.0487 -0.0958 -0.4517
 2593TIP3    H223447   4.558   3.950   1.702 -2.2753  0.2300 -1.0900
 2594TIP3   OH223448   0.675   3.087   2.383 -0.3078  0.4415 -0.0159
 2594TIP3    H123449   0.589   3.105   2.420  0.0062  1.0547  0.4390
 2594TIP3    H223450   0.673   2.994   2.360 -0.6795  0.1571  1.1003
 2595TIP3   OH223451   4.326   3.713   2.030  0.1165 -0.1379 -0.6900
 2595TIP3    H123452   4.230   3.707   2.033  0.1150 -0.3019 -1.0972
 2595TIP3    H223453   4.350   3.742   2.118 -0.4810  2.3831 -1.2839
 2596TIP3   OH223454   1.876   5.162   7.574  0.2158 -0.5775  0.1644
 2596TIP3    H123455   1.952   5.219   7.584  0.9710 -1.2145 -1.4892
 2596TIP3    H223456   1.913   5.075   7.560 -0.7445 -0.7182 -1.8070
 2597TIP3   OH223457   1.571   1.428   6.288  0.0207 -0.3224  0.2076
 2597TIP3    H123458   1.528   1.352   6.249  1.9267 -1.4714  0.2390
 2597TIP3    H223459   1.651   1.438   6.238 -0.4034  2.0037 -0.0983
 2598TIP3   OH223460   0.093   4.508   0.463  0.4650  0.1044 -0.4283
 2598TIP3    H123461   0.076   4.592   0.507  2.1033  0.2901 -0.0996
 2598TIP3    H223462   0.017   4.496   0.406  0.2885  1.9274 -0.6515
 2599TIP3   OH223463   0.169   5.855   0.779 -0.1752  0.0637  0.2281
 2599TIP3    H123464   0.181   5.920   0.848  1.7843  1.3268 -1.1870
 2599TIP3    H223465   0.255   5.849   0.736 -0.6927 -2.3700 -0.6607
 2600TIP3   OH223466   4.733   3.050   6.249 -0.5517 -0.6415 -0.0524
 2600TIP3    H123467   4.669   2.979   6.245 -0.3863 -0.7851 -0.2147
 2600TIP3    H223468   4.765   3.058   6.159  0.3621 -1.2218  0.2104
 2601TIP3   OH223469   3.560   0.562   6.840 -0.5962 -0.9930  0.4003
 2601TIP3    H123470   3.608   0.645   6.841  1.0342 -1.8842  1.2170
 2601TIP3    H223471   3.495   0.572   6.771  1.2780  0.0402 -1.3159
 2602TIP3   OH223472   1.640   5.074   7.117  0.3763 -0.0018 -0.1253
 2602TIP3    H123473   1.681   5.024   7.048 -0.7060 -0.4075 -0.4942
 2602TIP3    H223474   1.696   5.151   7.128  0.1744  0.4455 -1.9683
 2603TIP3   OH223475   2.157   4.742   7.211  0.3300 -0.4328  0.0995
 2603TIP3    H123476   2.249   4.747   7.187  0.2218 -0.2395 -0.2949
 2603TIP3    H223477   2.143   4.650   7.233  0.9851 -0.1623  1.7407
 2604TIP3   OH223478   2.604   2.052   0.153  0.4490  0.3256  0.7230
 2604TIP3    H123479   2.580   2.145   0.160  0.2735  0.3652 -0.3184
 2604TIP3    H223480   2.661   2.037   0.228 -0.0334  1.1123  1.2688
 2605TIP3   OH223481   5.706   1.386   7.707 -0.2129 -0.7163  0.5213
 2605TIP3    H123482   5.676   1.422   7.624  0.6251  2.0420  1.3024
 2605TIP3    H223483   5.630   1.394   7.765  0.8484  3.5834  1.7015
 2606TIP3   OH223484   4.732   4.894   1.377 -0.2122  0.9461  0.2104
 2606TIP3    H123485   4.722   4.855   1.464 -2.1458 -2.2393 -1.2731
 2606TIP3    H223486   4.643   4.897   1.341  0.5895  1.6788 -1.8714
 2607TIP3   OH223487   2.210   3.435   0.051  0.2489 -0.2334 -0.1898
 2607TIP3    H123488   2.253   3.520   0.051  2.4840 -1.2574 -1.2429
 2607TIP3    H223489   2.168   3.428   0.136  0.5250  1.6659  0.1288
 2608TIP3   OH223490   4.007   1.753   7.719 -0.3050 -0.3959  0.4247
 2608TIP3    H123491   4.038   1.822   7.778  0.3057  0.4410 -0.8414
 2608TIP3    H223492   3.994   1.677   7.776 -0.2968  0.5501  1.7289
 2609TIP3   OH223493   0.658   4.045   7.667  0.3392 -0.1435 -0.5088
 2609TIP3    H123494   0.722   4.087   7.724  1.3319 -1.6792 -0.4297
 2609TIP3    H223495   0.665   3.952   7.687 -2.3073 -0.3556 -0.1299
 2610TIP3   OH223496   5.397   1.704   6.946 -0.5779 -0.9700  0.0877
 2610TIP3    H123497   5.347   1.631   6.982  1.1708 -2.7187 -0.8744
 2610TIP3    H223498   5.472   1.712   7.005 -0.9211  0.3132  0.3799
 2611TIP3   OH223499   2.809   0.956   0.173 -0.3411 -1.0491  0.3754
 2611TIP3    H123500   2.747   0.895   0.133 -1.0186 -0.2319  0.1342
 2611TIP3    H223501   2.796   0.944   0.268 -1.2610 -0.5279  0.3317
 2612TIP3   OH223502   3.763   0.120   1.867  0.1317  0.1029 -0.1877
 2612TIP3    H123503   3.825   0.052   1.892  0.7896 -0.0394 -2.0302
 2612TIP3    H223504   3.727   0.152   1.950  0.2824 -2.0184  0.7508
 2613TIP3   OH223505   2.399   5.647   2.746  0.4508 -0.0032 -0.2447
 2613TIP3    H123506   2.326   5.622   2.689  0.4262  0.0256 -0.2259
 2613TIP3    H223507   2.437   5.564   2.773  1.0440 -0.0044 -1.0480
 2614TIP3   OH223508   1.882   3.160   2.663 -0.1548 -0.6882 -0.5473
 2614TIP3    H123509   1.815   3.133   2.601  0.5563 -0.0906 -1.6097
 2614TIP3    H223510   1.894   3.085   2.721 -1.7851 -0.7740 -0.2780
 2615TIP3   OH223511   3.739   4.107   0.017  0.1406 -0.3252  0.7709
 2615TIP3    H123512   3.792   4.146  -0.052  0.6950  0.8418  1.8266
 2615TIP3    H223513   3.801   4.087   0.088 -0.8889  2.0528  2.4703
 2616TIP3   OH223514   0.149   1.384   1.217 -0.2096  0.6302 -0.3471
 2616TIP3    H123515   0.106   1.309   1.177 -0.6095  1.1544 -0.9214
 2616TIP3    H223516   0.237   1.352   1.240 -1.2357 -0.8176  1.9760
 2617TIP3   OH223517   2.657   1.819   7.369  0.1596 -0.0173  0.4284
 2617TIP3    H123518   2.718   1.767   7.420  1.9878  1.6116  0.0171
 2617TIP3    H223519   2.705   1.841   7.289 -0.1909  2.9028  0.9212
 2618TIP3   OH223520   2.268   5.003   0.176  0.4699 -0.3181  0.0495
 2618TIP3    H123521   2.308   5.090   0.174  2.0099 -0.9424  1.5412
 2618TIP3    H223522   2.318   4.953   0.112 -1.6227  0.2981 -2.2167
 2619TIP3   OH223523   4.345   3.537   1.257  0.3676  0.0101  0.4720
 2619TIP3    H123524   4.327   3.464   1.317 -1.4673 -1.1325 -1.3407
 2619TIP3    H223525   4.436   3.522   1.229  0.1554 -1.3722  0.4317
 2620TIP3   OH223526   5.757   1.805   1.618  0.1773 -0.1849  0.0654
 2620TIP3    H123527   5.789   1.808   1.708  0.1521  0.9864  0.0485
 2620TIP3    H223528   5.820   1.749   1.572  0.2459 -0.7078  0.7716
 2621TIP3   OH223529   0.104   1.136   6.647 -0.3934  0.2875  0.0300
 2621TIP3    H123530   0.199   1.129   6.645 -0.4240 -0.6183  0.7187
 2621TIP3    H223531   0.076   1.066   6.707 -1.5003  0.4022 -0.3209
 2622TIP3   OH223532   1.463   0.406   6.269  0.2986 -1.0932  0.3265
 2622TIP3    H123533   1.382   0.364   6.297  0.8444 -2.0139  0.5437
 2622TIP3    H223534   1.495   0.352   6.196 -0.1156  0.1936 -0.8668
 2623TIP3   OH223535   1.695   3.120   2.480 -0.8454  0.1334  0.4673
 2623TIP3    H123536   1.659   3.055   2.419 -0.5634  0.0868  0.3478
 2623TIP3    H223537   1.623   3.140   2.539 -0.9832 -0.1679  0.4028
 2624TIP3   OH223538   5.600   5.587   0.446 -0.0914  0.2212  0.2592
 2624TIP3    H123539   5.624   5.502   0.482  0.7690 -0.1866 -1.2046
 2624TIP3    H223540   5.684   5.630   0.427 -0.5158  1.3289  0.7989
 2625TIP3   OH223541   1.929   3.476   2.712 -0.0495 -0.5266  0.2616
 2625TIP3    H123542   1.930   3.402   2.773  0.3219 -0.7166  0.0263
 2625TIP3    H223543   1.836   3.486   2.688  0.0235 -1.6349 -0.5614
 2626TIP3   OH223544   4.116   3.114   0.326 -0.6463  0.2082  0.4005
 2626TIP3    H123545   4.049   3.168   0.284 -0.3474 -1.6486 -2.7650
 2626TIP3    H223546   4.082   3.025   0.322  2.0962 -0.9141 -1.8829
 2627TIP3   OH223547   5.385   1.299   1.753  0.5998  0.8690  0.0605
 2627TIP3    H123548   5.443   1.347   1.812  0.0717  0.5071  0.8870
 2627TIP3    H223549   5.297   1.320   1.784  0.3503 -0.4777  0.3208
 2628TIP3   OH223550   4.253   1.538   1.147  0.7298  0.4117  0.6810
 2628TIP3    H123551   4.194   1.464   1.164 -1.7412  1.6514 -1.6954
 2628TIP3    H223552   4.322   1.502   1.091 -0.4650 -0.1513 -0.4966
 2629TIP3   OH223553   6.086   1.458   5.846 -0.0316  0.5496  0.1646
 2629TIP3    H123554   6.004   1.472   5.894 -0.0541  2.1443 -0.3143
 2629TIP3    H223555   6.072   1.376   5.798 -0.5636 -0.2809  1.6709
 2630TIP3   OH223556   0.801   2.641   1.778  0.6374 -0.0934 -0.2356
 2630TIP3    H123557   0.895   2.646   1.794  0.2575  0.5899  2.0960
 2630TIP3    H223558   0.763   2.610   1.860 -1.2182  0.0006 -0.9925
 2631TIP3   OH223559   5.189   3.922   0.503 -0.1774 -0.2384  0.4782
 2631TIP3    H123560   5.186   3.985   0.575 -0.7286 -0.6940  0.8608
 2631TIP3    H223561   5.279   3.929   0.469  0.4910 -0.9005  2.0009
 2632TIP3   OH223562   6.142   3.350   6.979  0.2023  0.6626 -0.3534
 2632TIP3    H123563   6.223   3.390   6.947  1.1159 -1.2955 -0.6191
 2632TIP3    H223564   6.080   3.423   6.983  1.9109  2.1991 -0.2747
 2633TIP3   OH223565   3.578   3.381   0.283  0.4368 -0.2823  0.1443
 2633TIP3    H123566   3.660   3.399   0.328 -0.2403  1.6979  0.6951
 2633TIP3    H223567   3.587   3.425   0.198  0.5658 -1.4939 -0.4953
 2634TIP3   OH223568   5.046   0.846   0.307 -0.2850  0.1945  0.1425
 2634TIP3    H123569   5.125   0.894   0.333  0.8920 -2.0347  0.9172
 2634TIP3    H223570   5.065   0.813   0.219 -1.0337  0.9685 -0.3288
 2635TIP3   OH223571   2.636   1.194   0.620  0.3118  0.0330  0.1082
 2635TIP3    H123572   2.671   1.203   0.708  0.2304 -2.4656  0.4860
 2635TIP3    H223573   2.548   1.158   0.633  0.3161 -0.4194 -0.9740
 2636TIP3   OH223574   0.055   0.076   0.979  0.4027  0.1878 -0.5763
 2636TIP3    H123575   0.088   0.080   1.069 -0.0706  0.9554 -0.4305
 2636TIP3    H223576   0.106   0.143   0.932 -0.2657  0.7130 -0.5668
 2637TIP3   OH223577   1.639   3.874   0.876 -0.1582  0.1533 -0.1898
 2637TIP3    H123578   1.704   3.815   0.838  0.0646 -1.0810  1.9373
 2637TIP3    H223579   1.556   3.827   0.865 -0.6888  1.4238 -2.2855
 2638TIP3   OH223580   2.752   2.833   6.339 -0.2584  0.2390 -0.2114
 2638TIP3    H123581   2.683   2.890   6.307 -1.4316 -2.3169 -2.7253
 2638TIP3    H223582   2.820   2.838   6.273  1.1177  1.1244  1.1973
 2639TIP3   OH223583   5.306   2.329   7.472  0.4338 -0.0756  0.4709
 2639TIP3    H123584   5.251   2.271   7.419  0.1623  1.8255 -1.4995
 2639TIP3    H223585   5.389   2.333   7.426  0.5650  0.7999  0.7607
 2640TIP3   OH223586   2.017   3.102   1.831 -0.2442 -0.2181  0.5102
 2640TIP3    H123587   2.094   3.135   1.785  0.2427 -0.7712  0.9177
 2640TIP3    H223588   2.007   3.160   1.906 -0.5704  0.1997  0.1536
 2641TIP3   OH223589   1.114   3.682   5.977 -0.1376 -0.1451 -0.2452
 2641TIP3    H123590   1.033   3.725   5.947 -1.5820 -0.6300  2.6268
 2641TIP3    H223591   1.103   3.590   5.952 -0.4744 -0.2032  0.1068
 2642TIP3   OH223592   5.279   3.672   6.665  0.5101 -0.2791 -0.2180
 2642TIP3    H123593   5.334   3.677   6.744  0.9428 -0.0031 -0.5290
 2642TIP3    H223594   5.342   3.676   6.593  0.1558 -1.0982 -0.5758
 2643TIP3   OH223595   6.115   4.284   2.069  0.3177 -0.4363  0.3247
 2643TIP3    H123596   6.210   4.285   2.066  0.3056  0.3407 -0.9709
 2643TIP3    H223597   6.088   4.263   1.979 -0.7171  0.2117  0.4584
 2644TIP3   OH223598   5.143   3.704   2.003  0.0667  0.6168 -0.6527
 2644TIP3    H123599   5.112   3.756   2.077  2.6108  0.5154  0.5749
 2644TIP3    H223600   5.165   3.769   1.936  3.3756  1.3600  0.9251
 2645TIP3   OH223601   4.907   0.153   1.977  0.0894  0.3684 -0.5991
 2645TIP3    H123602   4.987   0.131   2.024  0.6205  2.9686 -0.1666
 2645TIP3    H223603   4.903   0.089   1.905  2.2151 -0.1880 -0.2680
 2646TIP3   OH223604   1.960   6.297   6.633  0.1675  0.2916 -0.2270
 2646TIP3    H123605   1.881   6.336   6.671 -0.1059 -1.1907  0.7856
 2646TIP3    H223606   1.927   6.241   6.563  0.5618  1.7781 -1.6749
 2647TIP3   OH223607   5.447   3.735   6.108  0.4272 -0.3023 -0.1657
 2647TIP3    H123608   5.361   3.725   6.068 -0.5777 -0.0221  1.7957
 2647TIP3    H223609   5.438   3.811   6.166  2.4603  0.6763 -1.0386
 2648TIP3   OH223610   2.241   0.415   1.997  0.0787 -0.5426 -0.0660
 2648TIP3    H123611   2.180   0.351   1.962 -2.0566  0.4855  1.5330
 2648TIP3    H223612   2.206   0.437   2.083  1.3201  1.9489 -0.1096
 2649TIP3   OH223613   4.199   4.098   0.249 -0.2196 -0.1993 -0.0666
 2649TIP3    H123614   4.195   4.034   0.178 -1.0992 -0.3683  0.1146
 2649TIP3    H223615   4.176   4.181   0.209  1.1830  0.0605 -0.3545
 2650TIP3   OH223616   4.905   4.573   1.717  0.0946 -0.0893 -0.4901
 2650TIP3    H123617   4.907   4.606   1.806  0.9907  1.4282 -1.0317
 2650TIP3    H223618   4.992   4.537   1.702  0.2079  0.3778 -0.9970
 2651TIP3   OH223619   3.573   1.106   5.558  0.3036 -0.0199  0.2338
 2651TIP3    H123620   3.620   1.029   5.525 -0.2857  0.6926 -2.5032
 2651TIP3    H223621   3.641   1.174   5.566  0.2945  0.0657 -0.4275
 2652TIP3   OH223622   2.525   5.496   7.440 -0.2558 -0.0599  0.5720
 2652TIP3    H123623   2.605   5.522   7.394 -0.4492 -0.3621  0.0506
 2652TIP3    H223624   2.538   5.526   7.530  0.2568  0.2798  0.3896
 2653TIP3   OH223625   3.985   0.386   7.106  0.0643  0.4625  0.0131
 2653TIP3    H123626   3.902   0.418   7.072  0.3029  2.3336  1.0090
 2653TIP3    H223627   4.032   0.353   7.029 -2.1314 -2.0895 -0.3457
 2654TIP3   OH223628   1.110   2.824   1.330 -0.0643 -0.4042  0.5602
 2654TIP3    H123629   1.035   2.793   1.380  1.5307 -3.0879  1.5373
 2654TIP3    H223630   1.124   2.757   1.263  1.6181 -0.1578  0.6142
 2655TIP3   OH223631   2.537   4.822   7.006 -0.2252 -0.3463 -0.5580
 2655TIP3    H123632   2.457   4.794   6.960  0.0082 -3.2341  0.6009
 2655TIP3    H223633   2.564   4.745   7.056  2.1197  1.2337  0.7764
 2656TIP3   OH223634   6.002   3.090   7.008 -0.1021  0.5200  0.4965
 2656TIP3    H123635   6.051   3.169   6.984 -1.9335  1.8201  0.8250
 2656TIP3    H223636   6.025   3.074   7.099 -1.8001  2.3820  1.3190
 2657TIP3   OH223637   1.263   5.989   7.660 -0.3868  0.0374 -0.2989
 2657TIP3    H123638   1.357   5.985   7.645 -0.7105 -2.7354 -2.5663
 2657TIP3    H223639   1.240   5.901   7.690 -2.4574 -0.0112 -1.7743
 2658TIP3   OH223640   6.209   3.417   0.691 -0.8223  0.4233 -0.5045
 2658TIP3    H123641   6.287   3.363   0.704 -1.1245 -0.2084 -1.2365
 2658TIP3    H223642   6.169   3.423   0.778 -0.3141  0.1862 -0.2542
 2659TIP3   OH223643   4.194   0.914   7.293  0.0675 -0.3261  0.7592
 2659TIP3    H123644   4.117   0.967   7.310  0.3636  0.4821 -0.3013
 2659TIP3    H223645   4.268   0.973   7.310  0.3912 -0.0038 -1.4827
 2660TIP3   OH223646   0.111   1.715   0.744 -0.3966  0.5110  0.3371
 2660TIP3    H123647   0.109   1.704   0.839 -0.4355  0.2364  0.3050
 2660TIP3    H223648   0.050   1.649   0.710 -1.2292  1.3423  0.1833
 2661TIP3   OH223649   5.611   5.198   5.950  0.1158  0.4994 -0.4508
 2661TIP3    H123650   5.563   5.122   5.982  2.9408 -1.1665  0.1274
 2661TIP3    H223651   5.623   5.254   6.027  2.7808 -1.2265  0.5194
 2662TIP3   OH223652   4.640   4.491   0.549  0.5970  0.0125 -0.6397
 2662TIP3    H123653   4.704   4.453   0.489  0.0040  1.7557 -2.4860
 2662TIP3    H223654   4.555   4.461   0.516 -0.0128  3.7248 -3.0224
 2663TIP3   OH223655   1.997   2.298   6.883  0.9259  0.2115  0.1961
 2663TIP3    H123656   2.082   2.294   6.841  0.7280  0.1496 -0.2033
 2663TIP3    H223657   2.016   2.306   6.977  1.3672 -0.2544  0.1498
 2664TIP3   OH223658   1.095   4.428   6.565  0.2631 -0.3553  0.5698
 2664TIP3    H123659   1.173   4.440   6.512 -0.5782  2.0018 -0.2512
 2664TIP3    H223660   1.022   4.458   6.510 -0.7680  1.1295  2.5746
 2665TIP3   OH223661   3.604   5.244   1.064 -0.5043  0.2230 -0.0672
 2665TIP3    H123662   3.621   5.338   1.065  2.7149 -0.2612  0.6164
 2665TIP3    H223663   3.626   5.217   0.975 -1.1831  0.0592 -0.1910
 2666TIP3   OH223664   2.346   2.073   0.043  0.7115  0.0404  0.0911
 2666TIP3    H123665   2.346   2.004   0.110 -0.7332 -0.2268 -0.1409
 2666TIP3    H223666   2.330   2.154   0.092  1.7724  0.1394  0.2918
 2667TIP3   OH223667   3.628   2.210   1.653  0.4004 -0.5401 -0.1673
 2667TIP3    H123668   3.631   2.268   1.577 -1.0879 -0.6144 -0.3090
 2667TIP3    H223669   3.550   2.157   1.640  1.8433 -2.7915 -0.1785
 2668TIP3   OH223670   5.862   2.675   1.061  0.3075  0.5203 -0.0686
 2668TIP3    H123671   5.804   2.608   1.024 -0.8248  2.1661 -1.4516
 2668TIP3    H223672   5.802   2.740   1.097  1.3916  0.5136  1.8912
 2669TIP3   OH223673   5.982   3.766   1.227 -0.2354  0.4182 -0.3197
 2669TIP3    H123674   5.944   3.777   1.140  2.3247  0.6188 -1.4911
 2669TIP3    H223675   5.985   3.854   1.263 -0.9365  0.3839 -0.1533
 2670TIP3   OH223676   6.055   1.347   0.812 -0.3736 -0.3136 -0.3456
 2670TIP3    H123677   6.107   1.397   0.749  1.1839 -3.2293 -1.5434
 2670TIP3    H223678   6.063   1.256   0.783 -3.6771 -1.2508  1.2564
 2671TIP3   OH223679   3.352   4.768   1.609 -0.3522  0.0069 -0.2662
 2671TIP3    H123680   3.367   4.687   1.657 -0.0502 -0.0549 -0.4587
 2671TIP3    H223681   3.262   4.792   1.629 -0.3981 -0.3020 -0.0980
 2672TIP3   OH223682   5.560   4.847   6.833  0.0486 -0.0973  0.0914
 2672TIP3    H123683   5.534   4.773   6.778  0.6134  0.2778 -0.7051
 2672TIP3    H223684   5.584   4.916   6.771 -0.9297  0.9339  0.8141
 2673TIP3   OH223685   3.632   3.975   1.159  0.7889  0.2875 -0.0901
 2673TIP3    H123686   3.560   3.994   1.219  0.0758 -0.0864 -0.7986
 2673TIP3    H223687   3.616   3.885   1.130  0.2748  0.9404 -1.9514
 2674TIP3   OH223688   0.562   1.469   6.746 -0.0864  0.8533 -0.2465
 2674TIP3    H123689   0.571   1.442   6.655  1.3687  2.2616 -0.5578
 2674TIP3    H223690   0.500   1.542   6.744  0.5608  1.4093 -0.2266
 2675TIP3   OH223691   0.816   6.131   1.141 -0.2618  0.4384  0.5653
 2675TIP3    H123692   0.828   6.217   1.180  0.2054  0.6695 -0.0674
 2675TIP3    H223693   0.845   6.141   1.050 -0.8432 -0.2132  0.2967
 2676TIP3   OH223694   0.523   2.646   0.876 -0.1495 -0.2075 -0.0814
 2676TIP3    H123695   0.515   2.731   0.833 -1.9593 -0.4144 -0.2031
 2676TIP3    H223696   0.505   2.664   0.969 -1.4069 -0.5842 -0.2438
 2677TIP3   OH223697   0.268   2.459   7.195 -1.0201  0.3447 -0.5732
 2677TIP3    H123698   0.342   2.499   7.150 -0.4846 -1.6644 -1.5767
 2677TIP3    H223699   0.195   2.465   7.134 -0.7346 -0.8381 -1.0649
 2678TIP3   OH223700   5.750   4.164   0.202 -0.1751 -0.2713  0.1188
 2678TIP3    H123701   5.805   4.217   0.144  0.0509  0.2591  0.8023
 2678TIP3    H223702   5.793   4.170   0.287 -1.4963  0.4545  0.7520
 2679TIP3   OH223703   1.397   1.652   1.185 -0.0284 -0.3979  0.0050
 2679TIP3    H123704   1.488   1.623   1.185  0.1087 -0.0736  1.6695
 2679TIP3    H223705   1.367   1.638   1.096  1.4698 -1.0908 -0.4151
 2680TIP3   OH223706   5.343   5.362   6.170  0.2977  0.1954  0.3487
 2680TIP3    H123707   5.296   5.283   6.199 -0.6407  1.0278  1.2203
 2680TIP3    H223708   5.288   5.398   6.100  0.4868  0.3073  0.2591
 2681TIP3   OH223709   3.132   2.869   1.424  0.0625 -0.1289  0.3752
 2681TIP3    H123710   3.154   2.954   1.462  0.1083  0.0065  0.0484
 2681TIP3    H223711   3.211   2.843   1.376 -1.1722  1.4660 -2.8343
 2682TIP3   OH223712   3.843   1.601   6.286 -0.3012  0.7677 -0.2024
 2682TIP3    H123713   3.858   1.576   6.378 -0.5882  0.1938 -0.3055
 2682TIP3    H223714   3.897   1.540   6.236 -1.0971  0.2710 -0.4651
 2683TIP3   OH223715   6.020   1.591   6.301  0.4857  0.0868  1.4752
 2683TIP3    H123716   5.949   1.637   6.346  1.3582  0.9474  2.0177
 2683TIP3    H223717   6.100   1.624   6.343  1.3396  0.8509 -0.6023
 2684TIP3   OH223718   6.070   5.165   2.113  0.2164 -0.4792  0.6043
 2684TIP3    H123719   5.992   5.164   2.168  0.7251 -1.7203  1.3526
 2684TIP3    H223720   6.141   5.193   2.171  0.0985  2.3363 -0.4883
 2685TIP3   OH223721   4.047   1.606   0.454  0.2739 -0.1328 -0.7921
 2685TIP3    H123722   3.982   1.676   0.461  0.2733 -0.0813 -1.3319
 2685TIP3    H223723   4.131   1.652   0.442  0.5632 -0.1611  0.8565
 2686TIP3   OH223724   0.696   4.250   1.970  0.5104  0.6925  0.0023
 2686TIP3    H123725   0.710   4.342   1.944 -2.9936  1.5523  0.7167
 2686TIP3    H223726   0.711   4.249   2.064 -0.6315  0.8384  0.1951
 2687TIP3   OH223727   5.393   4.465   0.816  0.2416 -0.1567 -0.2732
 2687TIP3    H123728   5.488   4.467   0.802  0.4901 -0.8472  1.1081
 2687TIP3    H223729   5.360   4.537   0.763  1.5731  0.2558 -0.5937
 2688TIP3   OH223730   5.936   4.633   0.396  0.1250  0.3500 -0.2189
 2688TIP3    H123731   5.890   4.671   0.322 -0.5444 -0.7271 -0.3788
 2688TIP3    H223732   5.872   4.574   0.437  1.1924 -0.8395 -0.1812
 2689TIP3   OH223733   5.779   5.431   6.513  0.3149 -0.0058  0.4977
 2689TIP3    H123734   5.768   5.520   6.547  0.8152 -0.0070  0.6739
 2689TIP3    H223735   5.713   5.379   6.558  0.8004  0.0414  1.2884
 2690TIP3   OH223736   4.487   0.287   0.178 -0.6653 -0.1028 -0.0729
 2690TIP3    H123737   4.449   0.375   0.168 -1.3199 -0.2377  1.0658
 2690TIP3    H223738   4.421   0.229   0.141 -0.7304 -0.2016  0.2010
 2691TIP3   OH223739   2.114   1.516   7.370 -0.5843 -0.0704  0.1709
 2691TIP3    H123740   2.034   1.558   7.400  0.0893  0.9830  0.5575
 2691TIP3    H223741   2.157   1.582   7.315  0.6713 -0.0940  1.0725
 2692TIP3   OH223742   3.232   0.157   7.260 -0.2665  0.2822  0.4831
 2692TIP3    H123743   3.277   0.239   7.276  1.7422 -0.7849  0.6934
 2692TIP3    H223744   3.303   0.093   7.246 -1.7537 -0.9710 -1.9792
 2693TIP3   OH223745   2.499   4.591   7.707  0.1373 -0.5587  0.4533
 2693TIP3    H123746   2.474   4.520   7.647  1.0867  1.3285 -2.3739
 2693TIP3    H223747   2.433   4.658   7.692 -0.9935 -0.8898  3.4132
 2694TIP3   OH223748   3.411   5.628   7.490  0.0433 -0.2889 -0.4004
 2694TIP3    H123749   3.433   5.567   7.419 -0.5404 -0.3172 -0.5566
 2694TIP3    H223750   3.316   5.634   7.489  0.0398 -0.1506  0.2704
 2695TIP3   OH223751   2.422   2.718   7.066 -0.3285  0.6139  0.1332
 2695TIP3    H123752   2.358   2.758   7.124 -0.3057 -1.0074  1.3657
 2695TIP3    H223753   2.496   2.778   7.067  0.0584  0.2259  2.6121
 2696TIP3   OH223754   2.628   4.224   0.800  0.2187  0.5317 -0.0513
 2696TIP3    H123755   2.584   4.233   0.716 -0.5710  1.2099  0.4079
 2696TIP3    H223756   2.572   4.165   0.850  1.3090 -0.8298 -0.3882
 2697TIP3   OH223757   4.621   4.687   7.390 -0.2709 -0.2130  0.2100
 2697TIP3    H123758   4.609   4.595   7.413 -2.1271 -0.3261 -1.0015
 2697TIP3    H223759   4.539   4.730   7.416  0.5733  1.1271  0.7892
 2698TIP3   OH223760   4.960   0.675   1.424 -0.2510  0.3920 -0.3598
 2698TIP3    H123761   5.012   0.595   1.420 -0.3900  0.3421 -1.5577
 2698TIP3    H223762   4.871   0.647   1.403 -0.3151  0.8367 -0.6997
 2699TIP3   OH223763   1.511   1.709   2.045 -0.3784 -0.2494  0.0095
 2699TIP3    H123764   1.504   1.654   1.967  0.0492 -0.1037 -0.1301
 2699TIP3    H223765   1.593   1.684   2.086  0.1109  0.6914 -0.3710
 2700TIP3   OH223766   2.305   1.314   0.482 -0.4177 -0.0063 -0.2899
 2700TIP3    H123767   2.239   1.266   0.433 -0.3919 -1.4974  1.0722
 2700TIP3    H223768   2.265   1.330   0.568  0.4308  0.4336  0.0371
 2701TIP3   OH223769   0.182   3.761   7.740 -0.4305  0.0338 -0.1012
 2701TIP3    H123770   0.239   3.781   7.814 -0.7225  1.2804 -0.1817
 2701TIP3    H223771   0.137   3.844   7.722  0.1315 -0.0552 -2.1029
 2702TIP3   OH223772   3.368   2.416   7.433 -0.4746  0.1209  0.1525
 2702TIP3    H123773   3.388   2.328   7.400  1.8745 -0.2583  2.2945
 2702TIP3    H223774   3.272   2.417   7.441 -0.6739 -1.6980 -1.2169
 2703TIP3   OH223775   6.290   5.812   1.450 -0.4913  0.3309 -0.0398
 2703TIP3    H123776   6.360   5.767   1.403 -0.5926 -1.4486  1.4151
 2703TIP3    H223777   6.224   5.830   1.382  0.8911  1.1168 -1.2272
 2704TIP3   OH223778   3.988   1.072   5.792  0.0346  0.5572 -0.3168
 2704TIP3    H123779   3.954   1.093   5.705 -0.5418 -0.3612 -0.3192
 2704TIP3    H223780   4.081   1.093   5.786 -0.0995  1.0121 -0.9886
 2705TIP3   OH223781   3.912   1.990   5.997  0.0884  0.6627  0.1848
 2705TIP3    H123782   3.934   1.985   5.904 -0.2500 -1.2289  0.1616
 2705TIP3    H223783   3.816   1.997   5.999  0.0834  0.5619  0.3885
 2706TIP3   OH223784   2.813   3.262   0.670  0.1155  0.2822  0.2533
 2706TIP3    H123785   2.810   3.353   0.698  1.7779 -0.1848  2.1223
 2706TIP3    H223786   2.742   3.219   0.718 -0.4661  0.5064 -0.3898
 2707TIP3   OH223787   3.072   3.346   2.731 -0.5954 -0.2436 -0.4526
 2707TIP3    H123788   2.999   3.299   2.691 -1.5920 -1.7684  2.8307
 2707TIP3    H223789   3.045   3.438   2.727 -1.7888 -0.5877 -1.0198
 2708TIP3   OH223790   0.661   0.046   0.964 -0.0869 -0.7585 -0.3127
 2708TIP3    H123791   0.747   0.004   0.959 -0.3479 -1.5746  1.4408
 2708TIP3    H223792   0.673   0.117   1.028 -1.3716 -2.7959  2.4153
 2709TIP3   OH223793   1.054   3.918   6.727  0.4750 -0.3228  0.6099
 2709TIP3    H123794   1.042   4.009   6.702 -0.5309 -0.7896 -0.7860
 2709TIP3    H223795   1.028   3.914   6.819  0.4651  0.7824  0.6644
 2710TIP3   OH223796   1.324   1.867   0.359 -0.2127  0.1587  0.1516
 2710TIP3    H123797   1.355   1.952   0.328 -0.7683 -0.4755 -2.3987
 2710TIP3    H223798   1.400   1.809   0.349 -0.5044 -0.1329 -0.4182
 2711TIP3   OH223799   2.903   1.820   6.687 -0.0254 -0.1119  0.4191
 2711TIP3    H123800   2.982   1.822   6.634  0.6789  1.2480  1.4730
 2711TIP3    H223801   2.855   1.899   6.663 -0.3625 -0.1955  0.8004
 2712TIP3   OH223802   3.096   6.252   1.402  0.5213 -0.1691  0.3802
 2712TIP3    H123803   3.050   6.217   1.478  0.1661 -1.5844 -0.4648
 2712TIP3    H223804   3.168   6.191   1.388  0.9561  0.4355 -0.0558
 2713TIP3   OH223805   1.204   2.265   7.036  0.6032  0.0611 -0.1660
 2713TIP3    H123806   1.119   2.287   6.998  1.4850 -0.8123 -2.9560
 2713TIP3    H223807   1.190   2.182   7.081 -0.1324  0.2028 -0.1331
 2714TIP3   OH223808   2.408   4.781   0.930  0.1871 -0.0886 -0.4825
 2714TIP3    H123809   2.370   4.706   0.977  1.5489  0.1864  1.1560
 2714TIP3    H223810   2.421   4.749   0.840 -4.5651  0.0696 -1.4732
 2715TIP3   OH223811   3.259   1.785   6.138  0.1118 -0.0832  0.3329
 2715TIP3    H123812   3.207   1.718   6.093  0.0339  0.0595  0.2092
 2715TIP3    H223813   3.243   1.865   6.088 -1.2534  0.4544  1.5563
 2716TIP3   OH223814   5.686   3.559   0.644  0.2158  0.7268 -0.1398
 2716TIP3    H123815   5.777   3.574   0.670  0.9399 -0.6092 -1.7222
 2716TIP3    H223816   5.685   3.575   0.549 -0.6626 -1.4369 -0.5560
 2717TIP3   OH223817   0.599   1.141   1.990 -0.2862 -0.3666  0.1498
 2717TIP3    H123818   0.540   1.098   2.051 -1.0237 -2.7398 -2.0429
 2717TIP3    H223819   0.549   1.215   1.956 -0.9946 -0.7819  0.2609
 2718TIP3   OH223820   4.221   3.601   0.963  0.6310 -0.0427 -0.1034
 2718TIP3    H123821   4.161   3.532   0.992  0.9949 -0.1873  0.3101
 2718TIP3    H223822   4.184   3.682   1.000  0.2660 -0.0257 -0.4965
 2719TIP3   OH223823   0.781   2.172   0.138 -0.9041 -0.0354  0.1659
 2719TIP3    H123824   0.797   2.256   0.182 -0.4363  0.8866 -1.6637
 2719TIP3    H223825   0.690   2.150   0.162 -1.5566  1.7647 -0.4933
 2720TIP3   OH223826   5.370   4.544   1.360 -0.5382 -0.7696 -0.0936
 2720TIP3    H123827   5.278   4.569   1.352 -0.2191  1.1382  1.3792
 2720TIP3    H223828   5.416   4.601   1.299 -0.0330  0.7809  1.6437
 2721TIP3   OH223829   5.007   1.883   1.138 -0.4287  0.1453  0.0129
 2721TIP3    H123830   4.957   1.945   1.191 -0.8775 -1.5056  1.6137
 2721TIP3    H223831   5.096   1.887   1.173 -0.6595 -0.7281  0.7471
 2722TIP3   OH223832   4.447   5.987   7.434  0.4104 -0.3160  0.1503
 2722TIP3    H123833   4.453   5.901   7.475 -1.9963 -0.9434 -0.6455
 2722TIP3    H223834   4.385   6.035   7.488 -2.6446 -1.0764 -2.4087
 2723TIP3   OH223835   6.050   0.290   7.209 -0.0346  0.2268 -0.4989
 2723TIP3    H123836   6.124   0.250   7.254  0.4370  1.8899  0.2446
 2723TIP3    H223837   6.045   0.243   7.125  0.6652 -1.1721  0.2046
 2724TIP3   OH223838   5.972   5.465   1.454 -0.1286  0.2499  0.4947
 2724TIP3    H123839   5.947   5.375   1.471 -0.7001  0.4369  0.6723
 2724TIP3    H223840   6.057   5.475   1.497  0.1905 -0.3471  0.0170
 2725TIP3   OH223841   4.161   3.007   1.735 -0.0240 -0.3181 -0.6708
 2725TIP3    H123842   4.067   3.027   1.727  0.1157 -0.4474 -3.5975
 2725TIP3    H223843   4.204   3.092   1.721  0.3347 -0.1190  1.3881
 2726TIP3   OH223844   3.503   5.584   6.021  0.3371  0.1036 -0.1017
 2726TIP3    H123845   3.524   5.672   5.991 -1.4317  0.3939 -0.5952
 2726TIP3    H223846   3.502   5.591   6.117 -1.3171  1.0481 -0.1503
 2727TIP3   OH223847   3.907   3.225   0.650  0.4405 -0.5051  0.4752
 2727TIP3    H123848   3.829   3.188   0.607  1.1454 -0.2716 -1.0736
 2727TIP3    H223849   3.934   3.158   0.712  0.4744 -1.7178 -0.7915
 2728TIP3   OH223850   1.240   0.571   1.580  0.0538 -0.1142 -0.5594
 2728TIP3    H123851   1.173   0.625   1.539 -1.1957 -0.0562  1.4096
 2728TIP3    H223852   1.197   0.486   1.594  0.6564 -0.3346  0.0015
 2729TIP3   OH223853   5.195   0.710   1.577 -0.5502 -0.2252  0.7537
 2729TIP3    H123854   5.114   0.736   1.534 -0.6609  0.3096  1.2729
 2729TIP3    H223855   5.262   0.766   1.537  0.0765 -2.4961 -1.6491
 2730TIP3   OH223856   0.590   3.970   0.280  0.3737  0.6788 -0.0019
 2730TIP3    H123857   0.540   4.011   0.210 -0.4265  0.8375  0.6409
 2730TIP3    H223858   0.544   3.994   0.360  2.0191  1.6282  0.7185
 2731TIP3   OH223859   4.818   0.770   1.717 -0.3737 -0.2197  0.1483
 2731TIP3    H123860   4.889   0.718   1.677 -1.6387 -3.0258  1.2849
 2731TIP3    H223861   4.768   0.802   1.642  0.0126 -1.3182 -0.6194
 2732TIP3   OH223862   1.898   3.855   2.250  0.5382  0.3703  0.1052
 2732TIP3    H123863   1.878   3.789   2.316 -0.3109  1.8926  1.4502
 2732TIP3    H223864   1.910   3.806   2.169  2.5300 -1.6862  1.5117
 2733TIP3   OH223865   5.107   1.202   6.767 -0.8702 -0.1576  0.2812
 2733TIP3    H123866   5.198   1.230   6.770 -0.9159  0.0536 -0.2209
 2733TIP3    H223867   5.068   1.253   6.696 -1.1486 -0.9164 -0.1264
 2734TIP3   OH223868   2.715   4.596   7.529 -0.0889 -0.2285  0.5185
 2734TIP3    H123869   2.760   4.512   7.534 -0.4788 -0.4859 -0.1629
 2734TIP3    H223870   2.666   4.602   7.612 -1.0040 -1.2314  0.0752
 2735TIP3   OH223871   5.668   0.752   6.625 -0.0175 -0.1300 -0.4206
 2735TIP3    H123872   5.661   0.679   6.687 -0.9647 -0.4639 -0.9073
 2735TIP3    H223873   5.762   0.771   6.622 -0.0041  0.5773  1.8897
 2736TIP3   OH223874   1.509   0.975   6.842  0.3658  0.1838 -0.2874
 2736TIP3    H123875   1.492   0.947   6.931 -0.9340  0.5593 -0.3944
 2736TIP3    H223876   1.508   1.071   6.846 -1.1662  0.2240 -0.9297
 2737TIP3   OH223877   1.404   2.796   1.211 -0.4938 -0.9809 -0.7248
 2737TIP3    H123878   1.314   2.829   1.204  0.0213  0.6004 -0.2650
 2737TIP3    H223879   1.444   2.819   1.128 -0.0588 -0.1922 -0.3065
 2738TIP3   OH223880   0.251   1.101   7.103 -0.1437 -0.2278  0.7697
 2738TIP3    H123881   0.189   1.171   7.082  0.4455  0.1040  0.1458
 2738TIP3    H223882   0.301   1.087   7.023  0.9007 -0.1888  1.3945
 2739TIP3   OH223883   1.492   1.895   6.824 -0.5383 -0.0662 -0.1607
 2739TIP3    H123884   1.440   1.816   6.841 -0.5959  0.2274  1.0698
 2739TIP3    H223885   1.538   1.912   6.906  0.5897  0.3767 -0.8544
 2740TIP3   OH223886   4.179   6.287   5.986  0.2200 -0.0608 -0.1344
 2740TIP3    H123887   4.183   6.230   6.063 -2.6703  0.2960  0.4237
 2740TIP3    H223888   4.161   6.228   5.913  0.4147 -0.1734 -0.0894
 2741TIP3   OH223889   3.901   0.757   7.162  0.1233 -0.0153  0.2893
 2741TIP3    H123890   3.946   0.707   7.094 -1.2656 -0.9513  0.0125
 2741TIP3    H223891   3.893   0.845   7.125  0.3898 -0.2272 -0.2815
 2742TIP3   OH223892   1.941   1.424   0.892  0.2449  0.2231  0.2950
 2742TIP3    H123893   1.875   1.357   0.911  0.3001  0.2364  0.5442
 2742TIP3    H223894   2.000   1.421   0.967  1.7385 -1.2216 -0.8632
 2743TIP3   OH223895   5.220   2.724   6.085  0.8629  0.0648 -0.6367
 2743TIP3    H123896   5.315   2.734   6.084  0.9180 -0.2574  0.7070
 2743TIP3    H223897   5.187   2.812   6.065  1.4338  0.5534  0.4947
 2744TIP3   OH223898   4.373   2.288   6.796  0.1511  0.2801 -0.0649
 2744TIP3    H123899   4.453   2.292   6.848  0.9848 -0.7763 -1.1998
 2744TIP3    H223900   4.374   2.201   6.756 -0.1397  1.2206 -2.3072
 2745TIP3   OH223901   1.283   2.036   2.328  0.5699  0.2829  0.0836
 2745TIP3    H123902   1.208   2.024   2.268  0.6482 -2.3067  0.3746
 2745TIP3    H223903   1.249   2.093   2.396 -0.9188 -0.1674 -0.2194
 2746TIP3   OH223904   4.000   4.778   6.031 -1.6336 -0.5405  0.1547
 2746TIP3    H123905   3.914   4.736   6.028 -2.2430  0.6274  0.5359
 2746TIP3    H223906   3.983   4.869   6.006 -0.3459 -0.5258 -0.7191
 2747TIP3   OH223907   1.593   3.913   6.171 -0.6944  0.4309 -0.0882
 2747TIP3    H123908   1.672   3.916   6.118 -1.4528 -2.1642 -1.5624
 2747TIP3    H223909   1.553   3.999   6.161  0.3463  0.7491 -1.9226
 2748TIP3   OH223910   4.182   0.973   1.212 -0.0310  0.4286  0.0972
 2748TIP3    H123911   4.245   0.966   1.141 -0.6403  3.4081 -0.8811
 2748TIP3    H223912   4.100   0.940   1.175 -0.4830  2.4792 -0.9078
 2749TIP3   OH223913   0.594   5.485   1.528  0.1756 -0.3113 -0.3961
 2749TIP3    H123914   0.548   5.444   1.602 -0.7334  0.0220 -0.7653
 2749TIP3    H223915   0.633   5.412   1.480 -0.4116 -0.6433 -0.3720
 2750TIP3   OH223916   4.323   4.616   6.487 -0.5843  0.2291  0.2562
 2750TIP3    H123917   4.283   4.648   6.568  0.6452  1.2895  0.4752
 2750TIP3    H223918   4.404   4.572   6.516  0.7129  2.0433 -0.4720
 2751TIP3   OH223919   3.558   5.862   7.170  0.0056 -0.0098 -0.1027
 2751TIP3    H123920   3.502   5.839   7.244 -1.2171 -0.6293 -1.1780
 2751TIP3    H223921   3.607   5.782   7.151 -0.5546 -0.2070 -0.7081
 2752TIP3   OH223922   3.062   0.998   7.735 -0.7041  0.0173  0.1011
 2752TIP3    H123923   3.141   0.993   7.789 -1.0714 -0.7987  0.5744
 2752TIP3    H223924   3.093   1.034   7.652  0.0769  0.1840  0.4545
 2753TIP3   OH223925   5.680   0.861   7.492  0.4354  0.6058 -0.5642
 2753TIP3    H123926   5.666   0.828   7.403  1.4800  0.4804 -0.6990
 2753TIP3    H223927   5.672   0.956   7.483 -3.6336  0.5193  0.0144
 2754TIP3   OH223928   2.066   0.509   6.252 -0.0542  0.1854 -0.0815
 2754TIP3    H123929   2.012   0.588   6.260  1.1250  0.8558  2.3190
 2754TIP3    H223930   2.055   0.482   6.161 -2.1293  1.9141 -0.4471
 2755TIP3   OH223931   2.075   3.507   0.301  0.6931 -0.2789  0.6749
 2755TIP3    H123932   2.019   3.455   0.359 -2.1931  1.0540 -0.7217
 2755TIP3    H223933   2.058   3.598   0.325 -1.5006  0.4068 -2.7811
 2756TIP3   OH223934   6.190   3.397   2.457 -0.3567 -0.1836  0.0514
 2756TIP3    H123935   6.147   3.336   2.398 -0.2653  0.4103 -0.6368
 2756TIP3    H223936   6.159   3.483   2.430 -0.2314  0.1077  0.8012
 2757TIP3   OH223937   1.272   1.040   0.788  0.9404 -0.4355 -0.0437
 2757TIP3    H123938   1.281   1.109   0.854 -1.9739  0.8704 -0.8263
 2757TIP3    H223939   1.260   0.960   0.839  0.3626  0.2952  1.0222
 2758TIP3   OH223940   3.055   5.341   0.079  0.0777  0.2391  0.0601
 2758TIP3    H123941   2.990   5.292   0.028  0.1791  0.2744 -0.1049
 2758TIP3    H223942   3.021   5.342   0.168  0.4619 -0.8224  0.2292
 2759TIP3   OH223943   6.291   3.733   6.917 -0.3271 -0.0483  0.3330
 2759TIP3    H123944   6.252   3.815   6.886 -0.4955 -0.5317 -0.7870
 2759TIP3    H223945   6.305   3.681   6.838  3.3173  0.3738  0.5177
 2760TIP3   OH223946   2.219   1.812   6.051  0.5187  0.3271  0.0762
 2760TIP3    H123947   2.263   1.727   6.047 -0.0345  0.0152  0.4924
 2760TIP3    H223948   2.261   1.857   6.125  0.8005  0.4122 -0.1343
 2761TIP3   OH223949   3.856   0.654   7.591  0.3295 -0.6145 -0.4833
 2761TIP3    H123950   3.951   0.642   7.586  0.6351  0.9415  0.9235
 2761TIP3    H223951   3.827   0.587   7.653  0.4228 -1.3891 -1.2571
 2762TIP3   OH223952   2.788   1.148   2.070 -0.0699 -0.1090 -0.2945
 2762TIP3    H123953   2.785   1.053   2.080  1.1938 -0.2991 -1.4203
 2762TIP3    H223954   2.848   1.177   2.140 -2.0930  0.1434  1.4320
 2763TIP3   OH223955   1.914   4.571   1.807 -0.3835  0.1259  0.2192
 2763TIP3    H123956   1.882   4.648   1.854  0.7296  0.3713  0.5970
 2763TIP3    H223957   1.858   4.565   1.730 -2.0581 -0.1067  1.3902
 2764TIP3   OH223958   0.504   3.975   2.293 -0.2804 -0.1559  0.7771
 2764TIP3    H123959   0.416   4.013   2.287 -0.3656 -0.3074  1.0661
 2764TIP3    H223960   0.549   4.008   2.216 -0.9115 -0.9052  0.0649
 2765TIP3   OH223961   1.466   4.759   7.320 -0.6607 -0.1742  0.3813
 2765TIP3    H123962   1.533   4.822   7.345  0.5069 -1.6825  1.2458
 2765TIP3    H223963   1.385   4.793   7.357 -0.5526  2.0260 -1.2403
 2766TIP3   OH223964   1.949   0.015   7.484  0.2654  0.7110  0.1707
 2766TIP3    H123965   1.950  -0.030   7.569  2.6120  0.1527 -0.0757
 2766TIP3    H223966   1.991  -0.047   7.424  0.4285  1.8725 -0.9478
 2767TIP3   OH223967   2.661   5.244   0.652 -0.1691  0.0348  0.3934
 2767TIP3    H123968   2.744   5.288   0.667 -0.8007  1.0850  0.9864
 2767TIP3    H223969   2.599   5.315   0.635 -1.2518 -0.5896  1.5030
 2768TIP3   OH223970   3.433   4.170   1.279  0.1734 -0.7463  0.4407
 2768TIP3    H123971   3.396   4.120   1.352  0.2473  0.8828  1.6384
 2768TIP3    H223972   3.506   4.218   1.318  0.0271  0.3927 -0.6376
 2769TIP3   OH223973   5.768   5.859   6.887 -0.5324  0.1831 -0.4911
 2769TIP3    H123974   5.754   5.939   6.938 -0.0715 -0.2080  0.2614
 2769TIP3    H223975   5.847   5.878   6.835  0.2806 -0.1989  0.5712
 2770TIP3   OH223976   0.084   4.337   7.369 -0.1871  0.4720 -0.2253
 2770TIP3    H123977   0.088   4.306   7.279  1.9534 -0.4692  0.1307
 2770TIP3    H223978   0.047   4.264   7.419 -0.6642  0.7153 -0.2131
 2771TIP3   OH223979   1.375   5.798   2.347 -0.2516  0.3830  0.0450
 2771TIP3    H123980   1.438   5.768   2.413  1.1393  0.8718 -1.0084
 2771TIP3    H223981   1.373   5.893   2.357  1.2058  0.6418 -1.6039
 2772TIP3   OH223982   6.293   0.015   1.582 -0.0599  0.2370  0.3319
 2772TIP3    H123983   6.221  -0.004   1.521  1.2938 -0.3927 -1.1312
 2772TIP3    H223984   6.299  -0.064   1.637  0.0701 -0.0635 -0.1107
 2773TIP3   OH223985   2.131   6.039   1.558  1.0563 -0.5556  0.8060
 2773TIP3    H123986   2.131   6.078   1.471  0.5477  2.1336  1.9053
 2773TIP3    H223987   2.106   5.948   1.543 -1.6189  0.4179 -1.6456
 2774TIP3   OH223988   5.588   5.062   7.502 -0.1605  0.1623  0.3714
 2774TIP3    H123989   5.493   5.069   7.491 -0.0332  0.9339 -0.3373
 2774TIP3    H223990   5.602   5.070   7.596 -0.6835  1.7560  0.3367
 2775TIP3   OH223991   1.637   5.753   6.707  0.1977  0.1228  0.0877
 2775TIP3    H123992   1.673   5.820   6.648 -0.5543 -0.4175 -1.0111
 2775TIP3    H223993   1.713   5.702   6.735  0.3833 -0.7180 -1.8377
 2776TIP3   OH223994   2.138   3.911   7.436  0.0192 -0.2615 -0.1341
 2776TIP3    H123995   2.216   3.959   7.409  0.0143 -0.8536 -1.2266
 2776TIP3    H223996   2.067   3.951   7.386 -0.3246 -0.0218  0.5292
 2777TIP3   OH223997   3.299   1.106   0.308  0.2384 -0.0985 -0.3815
 2777TIP3    H123998   3.339   1.176   0.256  0.2595 -0.9077 -1.5123
 2777TIP3    H223999   3.212   1.139   0.330 -0.4540 -0.3799 -2.4484
 2778TIP3   OH224000   1.727   0.443   1.751  0.0595 -0.1529  0.7368
 2778TIP3    H124001   1.716   0.523   1.802  0.8691  1.4100 -1.3985
 2778TIP3    H224002   1.640   0.425   1.716  0.0543  0.3484  0.4754
 2779TIP3   OH224003   4.471   3.702   0.989  0.3117 -0.7139 -0.2947
 2779TIP3    H124004   4.490   3.669   1.077  0.3714 -2.6057 -0.9721
 2779TIP3    H224005   4.396   3.650   0.960 -1.3766  1.6596 -0.4202
 2780TIP3   OH224006   4.872   5.380   0.932  0.2444 -0.1990 -0.2552
 2780TIP3    H124007   4.901   5.467   0.904  0.1222 -0.3171 -0.7589
 2780TIP3    H224008   4.809   5.396   1.001 -1.0314  0.1848 -1.4607
 2781TIP3   OH224009   3.394   1.057   7.522  0.1163 -0.3847  0.1942
 2781TIP3    H124010   3.411   0.979   7.574 -0.8213  0.1487  1.3668
 2781TIP3    H224011   3.308   1.042   7.483 -0.3345  0.2881  0.9018
 2782TIP3   OH224012   0.972   1.289   1.900 -0.1769 -0.2369  0.6515
 2782TIP3    H124013   0.919   1.367   1.919 -0.6053 -0.3192 -0.1704
 2782TIP3    H224014   0.957   1.232   1.975  1.1407  0.9610  1.9072
 2783TIP3   OH224015   5.271   5.914   2.150 -0.0762  0.1006 -0.2723
 2783TIP3    H124016   5.282   5.896   2.244  2.8328  0.1884 -0.5182
 2783TIP3    H224017   5.208   5.986   2.147  0.0207  0.3162  1.6357
 2784TIP3   OH224018   3.769   3.434   7.075  0.4863  0.0807 -0.2620
 2784TIP3    H124019   3.843   3.405   7.129  1.5847  0.4797 -1.4951
 2784TIP3    H224020   3.756   3.526   7.099 -1.1470 -0.5567  1.5919
 2785TIP3   OH224021   1.051   1.258   1.246 -0.3962 -0.0477  0.3680
 2785TIP3    H124022   1.071   1.350   1.227 -3.2034  0.8871  1.5940
 2785TIP3    H224023   0.964   1.244   1.210  1.7205 -3.8992 -4.6946
 2786TIP3   OH224024   0.509   5.612   7.243  0.0792 -0.7813 -0.4095
 2786TIP3    H124025   0.591   5.635   7.286 -0.1697 -0.6409  0.0036
 2786TIP3    H224026   0.534   5.589   7.154  0.4796 -0.0393 -0.4989
 2787TIP3   OH224027   0.695   5.514   6.070  0.2755  0.2956  0.3092
 2787TIP3    H124028   0.619   5.458   6.088  1.3243 -1.3110 -0.0279
 2787TIP3    H224029   0.659   5.603   6.067 -1.6683 -0.4493 -0.2925
 2788TIP3   OH224030   3.270   4.695   6.988  0.7441 -0.0008  0.2329
 2788TIP3    H124031   3.365   4.702   7.001  0.7445 -0.4639  0.5250
 2788TIP3    H224032   3.232   4.742   7.062  0.7484 -0.0135  0.2436
 2789TIP3   OH224033   4.403   3.333   7.657 -0.0710 -0.2096  0.1028
 2789TIP3    H124034   4.380   3.397   7.590  0.1080 -0.3176 -0.0626
 2789TIP3    H224035   4.327   3.274   7.661 -0.3712  0.1961  0.4800
 2790TIP3   OH224036   3.123   0.152   7.574 -0.3321 -0.4029  0.4079
 2790TIP3    H124037   3.092   0.193   7.493  0.0059 -0.3999  0.2808
 2790TIP3    H224038   3.211   0.187   7.587 -1.0266  1.0240  1.7405
 2791TIP3   OH224039   2.418   4.815   7.411 -0.8999 -0.1722  0.0645
 2791TIP3    H124040   2.427   4.723   7.387  0.8705 -0.1851  0.6032
 2791TIP3    H224041   2.508   4.846   7.422 -1.4851  1.3040  1.0790
 2792TIP3   OH224042   1.185   4.827   6.509  0.1621  0.7524 -0.3926
 2792TIP3    H124043   1.210   4.798   6.421  1.5762  0.9689 -0.0811
 2792TIP3    H224044   1.252   4.891   6.534  0.7895 -0.5677  1.5220
 2793TIP3   OH224045   2.379   3.240   2.013 -0.2143 -0.6431 -0.7053
 2793TIP3    H124046   2.459   3.259   2.063  0.1344  0.3273 -1.5942
 2793TIP3    H224047   2.354   3.152   2.041 -0.1933 -0.0254  1.3675
 2794TIP3   OH224048   1.340   3.847   6.795  0.1347 -0.6555  0.8318
 2794TIP3    H124049   1.383   3.815   6.716 -1.9191 -2.0265  0.1956
 2794TIP3    H224050   1.249   3.817   6.787 -0.9660  1.9825  2.1423
 2795TIP3   OH224051   3.443   4.410   6.933 -0.2611 -0.3123  0.1378
 2795TIP3    H124052   3.380   4.457   6.880  0.0721  0.8798  0.7637
 2795TIP3    H224053   3.436   4.449   7.020  1.3859 -0.0743  0.2057
 2796TIP3   OH224054   6.116   5.366   2.748  0.3076 -0.1534 -0.7994
 2796TIP3    H124055   6.061   5.374   2.826  2.0272 -1.6618  0.6695
 2796TIP3    H224056   6.196   5.413   2.769  1.6510 -2.3159 -0.7286
 2797TIP3   OH224057   6.189   4.307   1.279 -0.4184 -0.2188 -0.2698
 2797TIP3    H124058   6.101   4.343   1.276 -0.7187 -0.9268 -0.1257
 2797TIP3    H224059   6.240   4.363   1.221 -0.2548  2.0547  1.9111
 2798TIP3   OH224060   1.960   2.699   6.429  0.0540 -0.1769 -0.4424
 2798TIP3    H124061   1.974   2.793   6.433 -0.4591 -0.0508 -1.1792
 2798TIP3    H224062   1.924   2.684   6.341  0.0420 -1.0432 -0.3041
 2799TIP3   OH224063   1.816   0.623   6.753  0.5315  0.3410 -0.3995
 2799TIP3    H124064   1.739   0.672   6.723 -0.2116 -0.5013  0.0877
 2799TIP3    H224065   1.865   0.686   6.807  0.8101  1.2332 -1.6562
 2800TIP3   OH224066   1.208   2.020   0.988 -0.2423  0.5394 -0.0215
 2800TIP3    H124067   1.160   2.063   0.917 -1.1866  0.0981  0.3249
 2800TIP3    H224068   1.267   1.959   0.944  1.4881  2.4772 -0.5443
 2801TIP3   OH224069   2.888   0.359   2.513  0.4277  0.0570  0.7108
 2801TIP3    H124070   2.812   0.406   2.547 -0.6473 -1.2824  0.2265
 2801TIP3    H224071   2.922   0.312   2.589  0.1562 -0.1489  0.7051
 2802TIP3   OH224072   5.139   5.366   6.702  0.4210  0.1273  0.2194
 2802TIP3    H124073   5.120   5.335   6.614 -0.1620 -0.0338  0.3931
 2802TIP3    H224074   5.114   5.293   6.759 -1.0789  0.9092  0.6346
 2803TIP3   OH224075   3.105   1.712   3.195  0.1351 -0.0092  0.0054
 2803TIP3    H124076   3.193   1.680   3.213  0.1028  0.2502  0.6392
 2803TIP3    H224077   3.113   1.808   3.199 -0.1445  0.0180 -0.0769
 2804TIP3   OH224078   2.341   0.927   7.115  0.4213 -0.0729 -0.0676
 2804TIP3    H124079   2.369   0.898   7.202 -1.0180 -0.1450  0.3912
 2804TIP3    H224080   2.422   0.956   7.073  1.0321  0.8906  1.6497
 2805TIP3   OH224081   2.141   0.240   1.407  0.1651  0.2169 -0.0533
 2805TIP3    H124082   2.108   0.211   1.492 -1.3705 -2.1236 -1.3164
 2805TIP3    H224083   2.072   0.213   1.345  1.2753  1.7286 -2.0481
 2806TIP3   OH224084   1.465   2.000   2.065  0.1417 -0.2018  0.1260
 2806TIP3    H124085   1.385   1.990   2.013 -0.7063 -0.8544  1.4711
 2806TIP3    H224086   1.489   1.911   2.089  0.2780  0.0916  1.1374
 2807TIP3   OH224087   2.673   0.612   7.033  0.3044 -0.0503  0.4916
 2807TIP3    H124088   2.691   0.518   7.046 -1.5326 -0.3650  1.1450
 2807TIP3    H224089   2.653   0.644   7.121  1.9575  1.2323  0.4342
 2808TIP3   OH224090   5.355   5.833   7.027 -0.7108 -0.6212  0.1033
 2808TIP3    H124091   5.264   5.804   7.023  0.0174 -3.2846  0.3293
 2808TIP3    H224092   5.401   5.760   7.070  1.0978  1.8109  2.6272
 2809TIP3   OH224093   3.545   6.244   2.558 -0.1730 -0.1311 -0.2579
 2809TIP3    H124094   3.474   6.296   2.596 -0.5862 -1.6041  1.0942
 2809TIP3    H224095   3.620   6.260   2.616  0.1279  0.0982 -0.7014
 2810TIP3   OH224096   2.152   5.903   7.200  0.2772  0.2381 -0.6799
 2810TIP3    H124097   2.125   5.990   7.170 -0.3814  0.6595  1.0655
 2810TIP3    H224098   2.163   5.912   7.294  2.3803 -1.0252 -0.7343
 2811TIP3   OH224099   3.884   0.489   6.191  0.6935 -0.1187  0.4625
 2811TIP3    H124100   3.836   0.407   6.178 -0.0014  0.3743 -0.1541
 2811TIP3    H224101   3.949   0.468   6.258 -0.0105 -0.9521  0.9139
 2812TIP3   OH224102   4.559   5.097   6.711 -0.5649 -0.1157  0.3523
 2812TIP3    H124103   4.650   5.102   6.682 -0.3256 -2.0993  0.6787
 2812TIP3    H224104   4.559   5.145   6.794  0.1193  0.1327  0.2211
 2813TIP3   OH224105   5.403   2.481   0.863 -0.0727 -0.0386  0.2870
 2813TIP3    H124106   5.369   2.409   0.916 -1.4882  0.0224 -0.4863
 2813TIP3    H224107   5.331   2.503   0.804  0.6448  1.4337 -0.0848
 2814TIP3   OH224108   0.817   0.127   0.109 -0.1010 -0.3203  0.2154
 2814TIP3    H124109   0.907   0.113   0.080  0.2978  1.3163  0.5953
 2814TIP3    H224110   0.825   0.175   0.191 -1.3228 -0.2477  0.3136
 2815TIP3   OH224111   0.198   4.663   7.083 -0.5165  0.2617 -0.2599
 2815TIP3    H124112   0.175   4.570   7.092  1.7679 -0.3222  0.3760
 2815TIP3    H224113   0.210   4.694   7.172 -0.3363  0.9008 -0.4988
 2816TIP3   OH224114   4.391   5.267   2.077 -0.1046 -0.3671  0.2616
 2816TIP3    H124115   4.380   5.361   2.090 -0.6464 -0.4644  0.5390
 2816TIP3    H224116   4.317   5.241   2.023 -0.1904 -0.7063  0.5369
 2817TIP3   OH224117   0.149   3.928   1.236  0.1098  0.4076 -0.1694
 2817TIP3    H124118   0.087   3.873   1.188 -1.0009  2.2395 -0.9715
 2817TIP3    H224119   0.095   3.972   1.303  1.1165 -0.0544  0.9806
 2818TIP3   OH224120   5.270   4.942   1.661  0.4153  0.0526 -0.3114
 2818TIP3    H124121   5.236   4.987   1.738  1.2931  0.0576  0.0857
 2818TIP3    H224122   5.305   4.859   1.695  2.0343  0.6357 -0.4694
 2819TIP3   OH224123   6.039   0.063   2.293 -0.1065 -0.3075  0.4619
 2819TIP3    H124124   5.998   0.103   2.370 -0.2380  1.2883 -0.4018
 2819TIP3    H224125   6.034   0.130   2.225 -2.5959 -2.6070 -1.8718
 2820TIP3   OH224126   6.189   4.254   0.490 -0.4553 -0.3858  0.3548
 2820TIP3    H124127   6.256   4.189   0.468  1.3915  1.3454  0.6312
 2820TIP3    H224128   6.190   4.316   0.418 -0.3300  0.7465  1.3012
 2821TIP3   OH224129   0.119   2.020   0.651 -0.2500 -0.9497 -0.3695
 2821TIP3    H124130   0.036   1.971   0.645  0.2780 -1.8723 -0.2861
 2821TIP3    H224131   0.174   1.967   0.709  0.0328  0.1971  0.4469
 2822TIP3   OH224132   5.982   4.637   2.725 -0.1011  0.0089 -0.0652
 2822TIP3    H124133   6.022   4.704   2.669  0.6940 -0.1151  0.3453
 2822TIP3    H224134   5.923   4.686   2.783  0.9581  0.4491  0.6683
 2823TIP3   OH224135   1.627   6.227   0.001 -0.1174  0.3172  0.3546
 2823TIP3    H124136   1.609   6.245   0.093 -1.2815 -0.2271  0.2597
 2823TIP3    H224137   1.721   6.212  -0.003  0.2181  1.9572  1.1631
 2824TIP3   OH224138   4.395   2.505   1.674  0.1364  0.2216 -0.5646
 2824TIP3    H124139   4.444   2.565   1.730  1.6211  0.9325 -2.4910
 2824TIP3    H224140   4.329   2.560   1.632 -1.3952 -0.4332  0.8677
 2825TIP3   OH224141   1.984   5.980   1.002 -0.2194 -0.1746  0.1555
 2825TIP3    H124142   2.077   5.973   0.983  0.0012  0.0546  1.1051
 2825TIP3    H224143   1.958   5.891   1.028  0.0480  0.0401  1.2029
 2826TIP3   OH224144   2.082   0.807   1.310  0.2202 -0.0813 -0.2501
 2826TIP3    H124145   2.139   0.811   1.387  1.5357  0.0445 -1.1991
 2826TIP3    H224146   2.016   0.874   1.325 -0.2581 -0.8643  1.3106
 2827TIP3   OH224147   2.382   4.355   6.634  0.2682 -0.1468 -0.1141
 2827TIP3    H124148   2.356   4.430   6.686 -1.6050 -0.4547 -0.5390
 2827TIP3    H224149   2.472   4.374   6.607  0.8716  0.5742  2.1588
 2828TIP3   OH224150   1.898   5.488   7.508 -0.0817  0.5843 -0.5690
 2828TIP3    H124151   1.921   5.579   7.524  0.3832  0.3821 -0.0687
 2828TIP3    H224152   1.975   5.451   7.465  0.0086  0.2493 -0.1222
 2829TIP3   OH224153   5.712   3.621   6.394  0.4357  0.7290 -0.4665
 2829TIP3    H124154   5.723   3.670   6.475  0.7046  1.5342 -0.9799
 2829TIP3    H224155   5.801   3.594   6.370  0.2373 -0.5304  0.1118
 2830TIP3   OH224156   0.885   5.535   1.233  0.5339  0.2778  0.2808
 2830TIP3    H124157   0.844   5.619   1.255  0.0009 -0.4428  2.2644
 2830TIP3    H224158   0.816   5.470   1.248  1.9191 -0.8417  2.3509
 2831TIP3   OH224159   5.259   0.905   6.436  0.5567 -0.5912 -0.3557
 2831TIP3    H124160   5.300   0.929   6.519  1.0471 -0.0413 -0.7439
 2831TIP3    H224161   5.194   0.974   6.421 -0.7464 -1.6131  0.3980
 2832TIP3   OH224162   5.342   4.108   7.575 -0.6859 -0.2224  0.7377
 2832TIP3    H124163   5.319   4.035   7.518 -1.3475  2.6478 -3.0876
 2832TIP3    H224164   5.437   4.100   7.588 -0.1233 -0.1221 -2.4652
 2833TIP3   OH224165   5.656   5.331   6.195 -0.2139  0.1366 -0.0248
 2833TIP3    H124166   5.561   5.343   6.199 -0.4581 -1.4936 -0.2508
 2833TIP3    H224167   5.680   5.305   6.284  0.3288  2.2984  0.5105
 2834TIP3   OH224168   4.789   1.000   6.861  0.4695  0.2626 -0.8037
 2834TIP3    H124169   4.702   1.034   6.842  0.0788  0.1903  0.7137
 2834TIP3    H224170   4.822   0.968   6.777 -2.1674 -2.4420 -0.9433
 2835TIP3   OH224171   4.420   6.263   6.578  0.6187 -0.3404  0.2831
 2835TIP3    H124172   4.405   6.214   6.659  1.6346  1.4822  1.6477
 2835TIP3    H224173   4.512   6.250   6.559  0.5425 -0.1896 -0.1995
 2836TIP3   OH224174   5.726   3.084   7.626 -0.6802 -0.1260  0.6175
 2836TIP3    H124175   5.771   3.123   7.551  0.6440  0.0709  1.4811
 2836TIP3    H224176   5.796   3.059   7.686 -1.7171 -0.1046  1.8875
 2837TIP3   OH224177   1.553   3.652   0.021  0.6609 -0.0553 -0.1654
 2837TIP3    H124178   1.584   3.698   0.100 -1.0655  0.6166  0.1712
 2837TIP3    H224179   1.464   3.685   0.008 -0.4636 -2.8428 -0.2955
 2838TIP3   OH224180   2.955   3.382   2.224  0.0671 -0.6238  0.5498
 2838TIP3    H124181   2.930   3.416   2.310  0.1467  1.3156 -0.1523
 2838TIP3    H224182   2.904   3.434   2.162  0.7591 -1.3086 -0.6250
 2839TIP3   OH224183   4.781   5.771   7.230  0.1258 -0.3854 -0.1106
 2839TIP3    H124184   4.746   5.797   7.145  2.5148 -1.5478 -1.5483
 2839TIP3    H224185   4.720   5.704   7.261 -2.0148  1.5857  0.2436
 2840TIP3   OH224186   4.952   3.922   1.822 -0.3620  0.1956 -0.4203
 2840TIP3    H124187   5.015   3.981   1.862  1.1690 -1.3989 -0.3602
 2840TIP3    H224188   4.999   3.883   1.748 -1.5802 -0.3835 -0.9162
 2841TIP3   OH224189   1.496   0.228   0.745 -0.2571  0.1016  0.5487
 2841TIP3    H124190   1.438   0.255   0.815 -0.1985  2.1310 -0.1159
 2841TIP3    H224191   1.567   0.292   0.746  0.9627 -1.1792  0.1022
 2842TIP3   OH224192   0.726   2.078   1.905 -0.8483  0.1013  0.0556
 2842TIP3    H124193   0.816   2.046   1.911 -2.1436 -4.6928 -1.2678
 2842TIP3    H224194   0.720   2.119   1.818 -0.0765  0.0038 -0.0479
 2843TIP3   OH224195   4.279   5.249   1.003  0.1340 -0.3453  0.5114
 2843TIP3    H124196   4.373   5.241   0.985  0.4688  2.6898  0.3043
 2843TIP3    H224197   4.248   5.159   1.009  2.7752 -1.4763 -0.8589
 2844TIP3   OH224198   0.731   6.083   0.180 -0.0873 -0.9289 -0.3499
 2844TIP3    H124199   0.753   5.998   0.143  0.7723 -0.5945 -0.6422
 2844TIP3    H224200   0.713   6.139   0.104 -1.3185 -1.0143 -0.1369
 2845TIP3   OH224201   5.922   1.370   6.675  0.1114  0.7586 -0.2360
 2845TIP3    H124202   5.856   1.320   6.723  0.7827 -1.3573 -1.4031
 2845TIP3    H224203   5.891   1.370   6.584  1.7900 -0.5325 -0.8631
 2846TIP3   OH224204   1.370   4.123   0.896  0.1835 -0.1087 -0.7892
 2846TIP3    H124205   1.377   4.161   0.809  3.1735 -0.2301 -0.7058
 2846TIP3    H224206   1.305   4.178   0.941 -0.7111  0.5313 -2.7678
 2847TIP3   OH224207   2.910   5.540   0.624  0.2433 -0.2450 -0.0163
 2847TIP3    H124208   2.943   5.451   0.608 -1.9067 -0.9460 -0.8808
 2847TIP3    H224209   2.822   5.527   0.659 -0.5422  1.5710 -1.1826
 2848TIP3   OH224210   2.632   4.396   7.307  0.2183  0.0922  0.5469
 2848TIP3    H124211   2.626   4.313   7.354 -0.7758  0.6006  1.3561
 2848TIP3    H224212   2.712   4.437   7.340 -1.0057  0.9265  2.6832
 2849TIP3   OH224213   5.210   6.103   0.104 -0.1176 -0.3263  0.7632
 2849TIP3    H124214   5.285   6.132   0.155 -0.1065 -0.5920  0.9018
 2849TIP3    H224215   5.199   6.011   0.128 -0.5635 -0.2562  0.8395
 2850TIP3   OH224216   1.439   4.986   6.500  0.3035 -0.1396  0.5025
 2850TIP3    H124217   1.488   4.925   6.445  0.4662 -0.4679  1.0032
 2850TIP3    H224218   1.505   5.047   6.532  0.0405  0.7310 -0.5362
 2851TIP3   OH224219   4.009   1.640   1.471 -0.2327 -0.2934  0.1454
 2851TIP3    H124220   4.040   1.554   1.499 -1.1465 -0.5719  0.3210
 2851TIP3    H224221   3.932   1.656   1.524  0.0864  0.7665  0.3073
 2852TIP3   OH224222   2.672   0.697   0.068 -0.5577 -0.3952  0.0583
 2852TIP3    H124223   2.634   0.670  -0.015 -0.7625  0.9692 -0.3217
 2852TIP3    H224224   2.599   0.737   0.116 -0.0874  0.3060  0.2067
 2853TIP3   OH224225   0.115   0.400   7.186 -0.0074 -0.4585 -0.3230
 2853TIP3    H124226   0.061   0.477   7.200 -0.1675 -0.5422 -0.4696
 2853TIP3    H224227   0.083   0.336   7.250  1.1140  0.0847  0.8314
 2854TIP3   OH224228   2.119   3.631   2.364  0.5861 -0.8828  0.1443
 2854TIP3    H124229   2.211   3.616   2.383  0.8269  0.2971 -0.0428
 2854TIP3    H224230   2.088   3.685   2.437  0.7627  1.1216 -1.2192
 2855TIP3   OH224231   0.731   5.196   1.975 -0.1268  0.4434  0.6307
 2855TIP3    H124232   0.691   5.216   1.891 -0.9160  0.6704  1.0524
 2855TIP3    H224233   0.809   5.145   1.953 -1.3928 -1.2424 -0.1346
 2856TIP3   OH224234   0.688   3.898   1.038 -0.3546 -0.2038 -0.0016
 2856TIP3    H124235   0.776   3.894   1.074 -1.2062 -0.2468  2.2231
 2856TIP3    H224236   0.698   3.945   0.955  1.7206 -0.0558  0.2850
 2857TIP3   OH224237   4.051   2.358   0.480  0.3880  0.5984 -0.3273
 2857TIP3    H124238   3.987   2.296   0.515  0.2052  0.9451 -0.0390
 2857TIP3    H224239   4.062   2.332   0.389 -1.5175  1.6246 -0.9028
 2858TIP3   OH224240   1.600   0.210   7.700  0.3664 -0.0511  0.2465
 2858TIP3    H124241   1.623   0.118   7.705 -2.9249 -1.0013  0.3419
 2858TIP3    H224242   1.678   0.256   7.731  1.7812 -2.8189  1.1383
 2859TIP3   OH224243   4.859   1.265   0.762 -0.1462  0.0017 -0.2574
 2859TIP3    H124244   4.949   1.294   0.777  0.4770 -1.6250 -0.6413
 2859TIP3    H224245   4.862   1.222   0.676 -1.1620 -0.5816 -0.0128
 2860TIP3   OH224246   3.464   5.252   1.779  0.1556 -0.2104  0.1746
 2860TIP3    H124247   3.528   5.244   1.850  0.9064 -0.6184 -0.5382
 2860TIP3    H224248   3.442   5.162   1.756  1.5071 -0.1592 -1.5085
 2861TIP3   OH224249   3.067   2.478   2.628 -0.1186 -0.1988  0.0010
 2861TIP3    H124250   3.021   2.560   2.609  0.7136  0.3666  0.3611
 2861TIP3    H224251   3.075   2.477   2.723 -0.1612 -0.7228 -0.0003
 2862TIP3   OH224252   3.459   0.593   1.576  0.4081 -0.0575 -0.1194
 2862TIP3    H124253   3.374   0.602   1.617  1.3334  1.4081  1.6035
 2862TIP3    H224254   3.459   0.504   1.540 -2.0889  0.1567 -0.8728
 2863TIP3   OH224255   2.958   3.137   7.696 -0.3500  0.4668 -0.4402
 2863TIP3    H124256   2.880   3.174   7.738 -1.8959 -0.8443 -1.9915
 2863TIP3    H224257   2.986   3.067   7.755 -0.8473  0.4300 -0.2368
 2864TIP3   OH224258   0.966   1.376   1.623 -0.4524 -0.3027  0.4677
 2864TIP3    H124259   0.984   1.348   1.712 -0.3553 -0.9808  0.2397
 2864TIP3    H224260   1.050   1.368   1.578 -0.7006 -0.8447  0.0893
 2865TIP3   OH224261   2.366   3.340   7.591 -0.2416 -0.2674 -0.0232
 2865TIP3    H124262   2.307   3.359   7.664 -0.0981 -1.0336  0.3067
 2865TIP3    H224263   2.308   3.313   7.520 -0.3611  0.1313 -0.0780
 2866TIP3   OH224264   5.055   4.195   7.036 -0.4225  0.5078  0.3067
 2866TIP3    H124265   5.009   4.216   7.117  0.4300  1.8468  0.4743
 2866TIP3    H224266   4.988   4.155   6.980 -1.2472  0.4442  1.3201
 2867TIP3   OH224267   0.419   5.173   2.353  0.4969  0.3488  0.5378
 2867TIP3    H124268   0.465   5.233   2.411 -0.9147  0.4370  1.6267
 2867TIP3    H224269   0.368   5.118   2.411  0.7027 -1.0193 -0.5207
 2868TIP3   OH224270   1.626   5.461   0.596 -0.2359 -0.3477 -0.2080
 2868TIP3    H124271   1.573   5.459   0.516  2.1866  1.0899 -1.9681
 2868TIP3    H224272   1.704   5.510   0.573  1.1645 -0.9287  2.7348
 2869TIP3   OH224273   5.360   5.071   7.069 -0.2472  0.1473  0.9187
 2869TIP3    H124274   5.312   5.042   7.146  1.7255 -2.4279  1.2945
 2869TIP3    H224275   5.446   5.096   7.102  0.8285 -1.5409 -0.4248
 2870TIP3   OH224276   0.251   0.372   7.653 -0.2981  0.2637  0.1734
 2870TIP3    H124277   0.344   0.359   7.671 -0.3132 -0.7099 -0.3609
 2870TIP3    H224278   0.215   0.284   7.653 -1.1889  0.6250  0.2003
 2871TIP3   OH224279   3.350   4.644   6.366 -0.6080  0.2341 -0.0398
 2871TIP3    H124280   3.399   4.725   6.353  0.7983 -0.5774 -0.0852
 2871TIP3    H224281   3.397   4.579   6.314 -0.1786 -1.1395  1.9205
 2872TIP3   OH224282   2.170   5.437   1.002 -0.2111  0.6324 -0.5994
 2872TIP3    H124283   2.233   5.498   1.041 -0.9421 -0.0227  1.7654
 2872TIP3    H224284   2.147   5.477   0.919  1.2813  2.2624 -0.3042
 2873TIP3   OH224285   4.241   0.337   2.551 -0.2159  0.3338  0.3519
 2873TIP3    H124286   4.298   0.400   2.594  1.0791 -0.0739 -0.6691
 2873TIP3    H224287   4.285   0.253   2.564  0.1565  0.1761 -1.5633
 2874TIP3   OH224288   3.037   3.935   1.877 -0.7500  0.3885  0.0750
 2874TIP3    H124289   3.013   3.962   1.788  1.0190  1.7238 -0.0500
 2874TIP3    H224290   3.133   3.943   1.879 -0.6347 -0.8993  1.7091
 2875TIP3   OH224291   5.608   4.017   5.870  0.3766  0.2467  0.2875
 2875TIP3    H124292   5.661   4.086   5.910  0.9237  0.4299 -0.6923
 2875TIP3    H224293   5.528   4.061   5.842  1.5429  1.0179 -2.1455
 2876TIP3   OH224294   4.953   1.253   6.178  0.1398  0.3717 -0.5405
 2876TIP3    H124295   4.970   1.302   6.098  0.1256  0.3272 -0.5707
 2876TIP3    H224296   4.879   1.299   6.219 -0.1479  0.1238 -0.7806
 2877TIP3   OH224297   2.445   0.903   0.168  0.0052  0.4136  0.1807
 2877TIP3    H124298   2.441   0.997   0.147 -1.4179  0.6712  1.4190
 2877TIP3    H224299   2.360   0.869   0.141  0.1046 -0.2997  0.7402
 2878TIP3   OH224300   5.006   3.287   1.636 -0.3122 -0.4686  0.4885
 2878TIP3    H124301   5.070   3.334   1.689 -0.3458  0.2842 -0.1118
 2878TIP3    H224302   5.059   3.231   1.579 -0.0800  0.9509 -0.7722
 2879TIP3   OH224303   2.526   2.858   0.090 -0.1400 -0.0142  0.3430
 2879TIP3    H124304   2.574   2.890   0.014 -2.4333  1.2667 -0.6797
 2879TIP3    H224305   2.478   2.782   0.058 -1.3829  0.7321  0.3479
 2880TIP3   OH224306   0.094   0.649   2.008 -0.2359  0.0216 -0.5025
 2880TIP3    H124307   0.097   0.575   1.947  0.5049 -1.4142  1.1727
 2880TIP3    H224308   0.166   0.705   1.982 -0.9387  0.2929 -1.9368
 2881TIP3   OH224309   5.307   4.861   6.606 -0.3950  0.3111 -0.5303
 2881TIP3    H124310   5.345   4.777   6.581  0.3647  0.5340 -0.1344
 2881TIP3    H224311   5.216   4.855   6.578  0.0527 -0.0200 -1.9775
 2882TIP3   OH224312   4.131   1.190   2.163  0.4043 -0.1598  0.3974
 2882TIP3    H124313   4.051   1.162   2.207  0.6277 -1.5192  0.0022
 2882TIP3    H224314   4.186   1.111   2.162  0.7325  0.0550 -1.5342
 2883TIP3   OH224315   5.826   3.905   0.214  0.2159 -0.1190 -0.1822
 2883TIP3    H124316   5.791   3.994   0.205  0.3424  0.0044  0.5304
 2883TIP3    H224317   5.863   3.886   0.128 -0.2083  0.3442 -0.4765
 2884TIP3   OH224318   5.484   1.453   2.653 -0.3075 -0.5466  0.0057
 2884TIP3    H124319   5.444   1.536   2.680 -0.0620 -1.1695  2.5795
 2884TIP3    H224320   5.570   1.453   2.694 -0.3468 -2.1237  0.1552
 2885TIP3   OH224321   1.613   3.792   0.262 -0.2573 -0.1155  0.1068
 2885TIP3    H124322   1.660   3.864   0.305  0.4179  0.0570 -0.8979
 2885TIP3    H224323   1.563   3.751   0.333 -1.1588  1.7175  0.5950
 2886TIP3   OH224324   2.032   4.514   7.276 -0.0857 -0.6876  0.2903
 2886TIP3    H124325   1.993   4.437   7.236 -0.3801 -0.5852  0.3803
 2886TIP3    H224326   1.962   4.579   7.277 -0.3494 -0.9737  1.8156
 2887TIP3   OH224327   1.717   3.522   0.332 -0.5286  0.2279 -0.1068
 2887TIP3    H124328   1.769   3.596   0.364 -1.0196  1.1759 -1.4032
 2887TIP3    H224329   1.626   3.549   0.345 -0.7214 -0.8437  0.8844
 2888TIP3   OH224330   3.368   0.306   1.932 -0.0180  0.1479 -0.6982
 2888TIP3    H124331   3.361   0.401   1.939  0.6045  0.2016 -0.7124
 2888TIP3    H224332   3.462   0.290   1.918 -0.2206 -0.4070 -1.5474
 2889TIP3   OH224333   3.616   3.700   1.353 -0.4456 -0.6967 -0.5959
 2889TIP3    H124334   3.689   3.643   1.331  1.2333  1.0249  0.2194
 2889TIP3    H224335   3.558   3.694   1.277  0.9356 -1.5046 -1.6481
 2890TIP3   OH224336   3.384   1.689   1.296 -0.2019  0.0504 -0.5363
 2890TIP3    H124337   3.392   1.719   1.387 -0.7792  0.8638 -0.7398
 2890TIP3    H224338   3.374   1.594   1.303 -0.1530  0.0924  0.2461
 2891TIP3   OH224339   4.136   3.894   0.076  0.2795  0.0080 -0.0749
 2891TIP3    H124340   4.150   3.831   0.006 -0.3877 -1.0346  0.7010
 2891TIP3    H224341   4.046   3.879   0.105 -0.0776  1.6596 -0.1881
 2892TIP3   OH224342   2.822   3.474   0.440 -0.3695  0.6388  0.1527
 2892TIP3    H124343   2.750   3.537   0.438 -1.7962 -0.9289 -1.1476
 2892TIP3    H224344   2.780   3.390   0.458  1.5611  0.0748  2.7415
 2893TIP3   OH224345   3.466   1.155   6.895  0.6334  0.2678 -0.0250
 2893TIP3    H124346   3.463   1.111   6.979 -0.7194  2.3521  1.1185
 2893TIP3    H224347   3.382   1.136   6.854  0.8663  0.1099 -0.4383
 2894TIP3   OH224348   5.471   5.310   1.765  0.3457  0.2495  0.3847
 2894TIP3    H124349   5.520   5.389   1.742  0.2456  0.2934  0.3202
 2894TIP3    H224350   5.435   5.328   1.852  0.7977  0.0490  0.6150
 2895TIP3   OH224351   4.496   2.835   0.573  0.4638 -0.1348 -0.4216
 2895TIP3    H124352   4.584   2.870   0.561  0.8528 -0.7359  0.5082
 2895TIP3    H224353   4.487   2.768   0.506  0.6247  0.0955 -0.6732
 2896TIP3   OH224354   5.766   5.798   0.042  0.0352  0.3121 -0.1324
 2896TIP3    H124355   5.761   5.780   0.136  0.4895 -0.7219 -0.2995
 2896TIP3    H224356   5.777   5.712   0.001 -0.2405  0.7406 -1.1439
 2897TIP3   OH224357   1.512   1.586   2.690 -0.7025 -0.2658  0.1003
 2897TIP3    H124358   1.467   1.668   2.713 -1.9009 -1.3696  1.9154
 2897TIP3    H224359   1.442   1.526   2.664  0.1833 -0.7025 -1.4068
 2898TIP3   OH224360   2.859   1.736   0.368  0.2593 -0.3859 -0.3011
 2898TIP3    H124361   2.804   1.679   0.422  1.3147 -0.4214  0.7719
 2898TIP3    H224362   2.827   1.824   0.386  1.1264 -0.3172  1.0709
 2899TIP3   OH224363   0.357   1.647   6.743 -0.4767 -0.1143  0.0227
 2899TIP3    H124364   0.296   1.611   6.679  1.5727 -1.0705 -1.4983
 2899TIP3    H224365   0.414   1.705   6.692  0.7999 -0.3761  1.0955
 2900TIP3   OH224366   1.883   2.217   0.371 -0.0962  0.7187  0.2881
 2900TIP3    H124367   1.851   2.283   0.310  1.1289  0.2670 -0.9109
 2900TIP3    H224368   1.977   2.212   0.352  0.0296 -0.5385  1.1690
 2901TIP3   OH224369   1.690   0.434   0.148  0.1401  0.1993  0.3215
 2901TIP3    H124370   1.628   0.376   0.192 -1.1882  0.9298 -0.5118
 2901TIP3    H224371   1.756   0.454   0.214 -0.7929 -0.1920  1.4050
 2902TIP3   OH224372   5.032   4.290   1.552 -0.1172  0.1952 -0.0990
 2902TIP3    H124373   5.092   4.221   1.580 -0.9072 -1.1186 -1.4828
 2902TIP3    H224374   4.951   4.273   1.602 -0.0496  0.6321  0.1636
 2903TIP3   OH224375   4.104   1.318   2.853 -0.1111 -0.3878  0.0405
 2903TIP3    H124376   4.191   1.352   2.875 -0.0632 -0.6971  0.3407
 2903TIP3    H224377   4.045   1.393   2.863  0.4741  0.6009 -2.8468
 2904TIP3   OH224378   1.448   6.057   0.246  0.5118  0.7089  0.0969
 2904TIP3    H124379   1.380   6.069   0.311  0.1034 -0.5851 -0.0682
 2904TIP3    H224380   1.517   6.118   0.272  0.7543 -0.4222  2.2953
 2905TIP3   OH224381   4.683   0.585   1.326  0.2305  0.1742 -0.5458
 2905TIP3    H124382   4.714   0.499   1.295  0.5141  0.4362 -0.9958
 2905TIP3    H224383   4.686   0.641   1.249  2.7023  1.3438  0.2921
 2906TIP3   OH224384   0.768   3.526   1.122 -0.3396  0.4941  0.2095
 2906TIP3    H124385   0.828   3.559   1.190  0.1618  1.2525 -0.5736
 2906TIP3    H224386   0.794   3.573   1.043  0.3563 -1.7476 -0.9733
 2907TIP3   OH224387   0.750   0.469   6.381  0.2827 -0.5362  0.7563
 2907TIP3    H124388   0.669   0.449   6.429  0.3054 -0.9904  0.6114
 2907TIP3    H224389   0.726   0.541   6.323  0.4225  0.4787  1.9091
 2908TIP3   OH224390   1.296   3.179   6.205  0.5044  0.1232  0.2549
 2908TIP3    H124391   1.347   3.121   6.148 -1.0514 -1.5810  0.5059
 2908TIP3    H224392   1.239   3.228   6.147 -0.8787 -1.4092  0.2408
 2909TIP3   OH224393   1.279   2.940   1.001  0.2738 -0.0154  0.1104
 2909TIP3    H124394   1.227   3.007   1.045  0.3683  1.8926 -2.4459
 2909TIP3    H224395   1.271   2.961   0.908 -0.1561 -3.9496 -0.9197
 2910TIP3   OH224396   0.557   2.895   0.730  0.1871 -0.6991 -0.1180
 2910TIP3    H124397   0.482   2.916   0.674  0.6347 -0.2168 -0.5497
 2910TIP3    H224398   0.631   2.887   0.669  0.4683 -1.2942  0.2874
 2911TIP3   OH224399   3.391   3.726   0.554 -0.6556 -0.5430  0.1106
 2911TIP3    H124400   3.320   3.770   0.508 -1.9368 -1.6053  0.9873
 2911TIP3    H224401   3.466   3.733   0.495 -1.0182  2.0171 -0.1318
 2912TIP3   OH224402   4.453   0.145   2.574 -0.0010  0.0607  0.2712
 2912TIP3    H124403   4.548   0.153   2.586  0.0258 -1.1091  1.0276
 2912TIP3    H224404   4.441   0.058   2.536 -0.8813 -0.6274  2.0190
 2913TIP3   OH224405   4.736   2.893   7.734  0.6272 -0.0703 -0.2865
 2913TIP3    H124406   4.813   2.885   7.678  0.1787 -0.9170 -0.8030
 2913TIP3    H224407   4.662   2.899   7.673  0.3513  1.8446  0.1781
 2914TIP3   OH224408   2.123   4.861   1.825  0.3231  0.2857 -0.1561
 2914TIP3    H124409   2.168   4.944   1.841 -0.6764  0.4656  2.3044
 2914TIP3    H224410   2.096   4.864   1.734 -0.0018  2.8666 -0.0330
 2915TIP3   OH224411   1.363   5.479   7.124 -0.2539  0.4989 -0.5257
 2915TIP3    H124412   1.295   5.432   7.076  0.7892 -3.5664  1.5268
 2915TIP3    H224413   1.324   5.494   7.211  0.4590  0.7410 -0.2453
 2916TIP3   OH224414   1.923   2.875   1.287  0.1549 -0.3309 -0.1304
 2916TIP3    H124415   1.953   2.956   1.248  0.8121  0.6025  2.1576
 2916TIP3    H224416   1.966   2.806   1.236  1.3830  0.8182 -0.7040
 2917TIP3   OH224417   4.648   4.356   7.089 -0.6300  0.1060  0.6426
 2917TIP3    H124418   4.634   4.344   7.183 -0.8559 -0.7812  0.5028
 2917TIP3    H224419   4.683   4.272   7.059 -1.3577  0.0905 -0.2127
 2918TIP3   OH224420   1.482   4.440   2.298  0.2163  0.2891 -0.3617
 2918TIP3    H124421   1.575   4.433   2.318  0.0506 -0.5323  0.2444
 2918TIP3    H224422   1.441   4.377   2.358 -0.5731 -0.5191 -1.6904
 2919TIP3   OH224423   1.087   0.337   0.521 -0.6627 -0.4280 -0.1319
 2919TIP3    H124424   1.046   0.393   0.455  2.1317  2.2435  0.1187
 2919TIP3    H224425   1.114   0.259   0.473  0.5943  1.0997 -2.1104
 2920TIP3   OH224426   6.096   2.926   0.319 -0.5144  0.0791  0.0307
 2920TIP3    H124427   6.138   2.894   0.399  1.2066  0.7152 -0.5702
 2920TIP3    H224428   6.027   2.985   0.350 -1.5699 -1.6125  1.0625
 2921TIP3   OH224429   3.658   5.765   0.235 -0.1549 -0.3341  0.3435
 2921TIP3    H124430   3.670   5.677   0.199 -0.0311  0.2769 -1.1698
 2921TIP3    H224431   3.563   5.775   0.243 -0.1578 -0.7092  0.8024
 2922TIP3   OH224432   3.193   5.396   2.356 -0.4881 -0.2605  0.2112
 2922TIP3    H124433   3.109   5.434   2.381 -1.4966 -1.0376 -1.7492
 2922TIP3    H224434   3.186   5.304   2.382 -0.7668 -0.6148 -1.0765
 2923TIP3   OH224435   1.535   4.762   2.563  0.1428 -0.5677 -0.6664
 2923TIP3    H124436   1.497   4.834   2.613  2.4160  0.4138 -0.2529
 2923TIP3    H224437   1.625   4.755   2.594  0.4860 -2.5062 -1.8907
 2924TIP3   OH224438   3.076   3.552   1.804  0.7013 -0.4997  0.3540
 2924TIP3    H124439   3.133   3.537   1.729  0.1589  1.7375 -0.5724
 2924TIP3    H224440   3.018   3.475   1.806  1.2962 -1.0058 -0.9706
 2925TIP3   OH224441   1.473   3.484   6.792  0.3496  0.1131 -0.4935
 2925TIP3    H124442   1.470   3.529   6.708  2.1638 -0.5567 -0.9599
 2925TIP3    H224443   1.483   3.392   6.770 -3.5086 -0.6884  0.4350
 2926TIP3   OH224444   1.528   5.447   6.925 -0.9070  0.1330 -0.3576
 2926TIP3    H124445   1.480   5.467   7.006  0.3606  2.0503 -0.0039
 2926TIP3    H224446   1.613   5.490   6.937  0.5047 -2.1708 -1.4290
 2927TIP3   OH224447   2.852   3.082   6.150 -0.2676  0.6708  0.4844
 2927TIP3    H124448   2.943   3.058   6.169 -0.2706  0.0227 -0.2747
 2927TIP3    H224449   2.822   3.015   6.088 -1.2747  0.8539  0.7548
 2928TIP3   OH224450   3.415   1.739   6.507 -0.4310 -0.4882  0.0575
 2928TIP3    H124451   3.462   1.803   6.453  0.1443 -1.4586 -0.6332
 2928TIP3    H224452   3.477   1.714   6.575 -1.0417  0.4892  0.9943
 2929TIP3   OH224453   0.715   2.461   1.970  0.2805  0.3081 -0.0494
 2929TIP3    H124454   0.773   2.395   2.009  0.6373  0.9246  0.4764
 2929TIP3    H224455   0.689   2.517   2.044 -1.3868 -0.2295 -0.1707
 2930TIP3   OH224456   1.523   0.383   1.141  0.0915  0.0489 -0.2589
 2930TIP3    H124457   1.456   0.409   1.204  0.1246  0.1301 -0.2572
 2930TIP3    H224458   1.587   0.334   1.193  0.7608  1.1900  0.0147
 2931TIP3   OH224459   3.940   4.525   0.231  0.0175  0.2409 -0.2338
 2931TIP3    H124460   3.975   4.613   0.216  1.3286 -0.1516  0.3820
 2931TIP3    H224461   3.845   4.535   0.222 -0.1457  2.3152  2.5722
 2932TIP3   OH224462   5.506   5.799   0.589  0.3633  0.2520  0.4773
 2932TIP3    H124463   5.438   5.773   0.652 -0.9239 -0.4033 -1.1119
 2932TIP3    H224464   5.538   5.716   0.554  0.5917  0.6330 -0.2149
 2933TIP3   OH224465   2.916   3.029   7.029 -0.4771 -0.7459  0.0616
 2933TIP3    H124466   2.945   2.938   7.036  0.0338 -0.7955 -2.0120
 2933TIP3    H224467   2.969   3.077   7.092  0.4647 -1.6369 -0.0363
 2934TIP3   OH224468   3.601   3.876   7.728 -0.3928  0.3615 -0.1727
 2934TIP3    H124469   3.628   3.967   7.729 -2.7454  1.1841  2.6601
 2934TIP3    H224470   3.547   3.865   7.806 -0.6562 -3.3525 -0.6470
 2935TIP3   OH224471   1.384   2.964   7.413  0.0618 -0.0624 -0.5958
 2935TIP3    H124472   1.476   2.990   7.420 -0.2931  0.9199  1.0663
 2935TIP3    H224473   1.358   2.990   7.325  0.9392  1.2252 -0.4985
 2936TIP3   OH224474   2.966   6.241   6.382  0.1978 -0.0880  0.4512
 2936TIP3    H124475   2.942   6.231   6.474 -0.5099 -0.9183  0.1865
 2936TIP3    H224476   3.019   6.321   6.380 -0.0386  0.1154  1.5269
 2937TIP3   OH224477   2.942   0.202   0.404 -0.0185  0.1048 -0.0568
 2937TIP3    H124478   2.962   0.120   0.448  0.3877  0.5419  0.5824
 2937TIP3    H224479   2.993   0.199   0.323 -0.3476 -0.4578 -0.2501
 2938TIP3   OH224480   3.978   5.251   6.476 -0.2807 -0.2038  0.3036
 2938TIP3    H124481   3.885   5.227   6.472 -0.1639 -0.4736 -1.2356
 2938TIP3    H224482   4.006   5.221   6.563 -1.2636 -1.4939  0.2137
 2939TIP3   OH224483   1.218   0.298   6.357  0.3949 -0.8264 -0.6271
 2939TIP3    H124484   1.140   0.326   6.406  0.9837  1.2161 -0.7461
 2939TIP3    H224485   1.184   0.237   6.291 -1.0216 -0.4275 -0.3129
 2940TIP3   OH224486   5.123   5.669   1.214 -0.4051  0.0804  0.1460
 2940TIP3    H124487   5.178   5.694   1.140  0.1434 -0.8448  0.2212
 2940TIP3    H224488   5.036   5.700   1.191  0.4499  3.5206  0.9561
 2941TIP3   OH224489   0.774   3.016   6.991  0.3453  0.5685 -0.0272
 2941TIP3    H124490   0.841   3.032   6.925  0.6609 -3.0097 -0.8082
 2941TIP3    H224491   0.820   2.974   7.063 -0.6735  0.3369  0.5198
 2942TIP3   OH224492   4.708   1.747   6.632 -0.4901  0.3780 -0.6995
 2942TIP3    H124493   4.793   1.792   6.635 -0.7182  0.7756  0.0114
 2942TIP3    H224494   4.681   1.753   6.540  0.4332 -0.1000 -1.0108
 2943TIP3   OH224495   1.050   4.564   1.804 -0.6932 -0.1991  0.4227
 2943TIP3    H124496   1.138   4.549   1.839 -0.6891  0.6285  0.7925
 2943TIP3    H224497   1.010   4.477   1.802 -0.1444 -0.4760  1.0102
 2944TIP3   OH224498   2.342   3.423   1.484  0.0731 -0.2383  0.7585
 2944TIP3    H124499   2.252   3.438   1.456 -0.4804 -1.8357  1.5943
 2944TIP3    H224500   2.336   3.353   1.548  1.6273  1.2197  2.6438
 2945TIP3   OH224501   1.781   4.191   1.365  0.5284  0.3357  0.3528
 2945TIP3    H124502   1.749   4.114   1.319 -0.4510  1.4407 -0.8858
 2945TIP3    H224503   1.853   4.158   1.419  0.8751 -1.2399 -0.9919
 2946TIP3   OH224504   0.752   5.879   7.212 -0.4087 -0.2130 -0.0272
 2946TIP3    H124505   0.808   5.948   7.176  0.2347 -0.2067  0.9547
 2946TIP3    H224506   0.806   5.835   7.277 -1.3890 -0.5052  0.6229
 2947TIP3   OH224507   1.870   0.131   0.186  0.2159 -0.0121 -0.3393
 2947TIP3    H124508   1.937   0.102   0.248  0.3542  0.1989 -0.3862
 2947TIP3    H224509   1.797   0.072   0.199  0.2452  0.0335  0.0262
 2948TIP3   OH224510   5.177   2.502   5.919  0.2937  0.3471  0.8422
 2948TIP3    H124511   5.235   2.426   5.923 -0.2570 -0.1352 -0.0204
 2948TIP3    H224512   5.220   2.568   5.973  2.3809  0.5076 -0.8575
 2949TIP3   OH224513   2.545   4.480   0.913 -0.0792 -0.0778  0.0302
 2949TIP3    H124514   2.600   4.525   0.977 -0.3222  0.4501 -0.1309
 2949TIP3    H224515   2.589   4.396   0.899  0.2796  0.0328  0.4639
 2950TIP3   OH224516   3.659   1.813   7.730  0.0372 -0.1125  0.4337
 2950TIP3    H124517   3.708   1.840   7.653  1.2726 -0.7819  0.9485
 2950TIP3    H224518   3.569   1.838   7.712  0.3234 -0.1640 -1.1688
 2951TIP3   OH224519   5.467   5.882   0.290  0.5438 -0.5884 -0.2704
 2951TIP3    H124520   5.416   5.958   0.319 -1.6811 -2.4338  0.9800
 2951TIP3    H224521   5.523   5.861   0.364  0.6405 -0.6063 -0.3476
 2952TIP3   OH224522   5.248   6.230   6.503  0.6262 -0.1899  0.2363
 2952TIP3    H124523   5.197   6.157   6.467 -0.3331 -0.4033  1.9009
 2952TIP3    H224524   5.188   6.272   6.565  1.6016  1.2340  0.2599
 2953TIP3   OH224525   4.525   0.521   6.409 -0.0466 -0.1532 -0.1260
 2953TIP3    H124526   4.469   0.450   6.376 -0.1306 -1.2921  2.2390
 2953TIP3    H224527   4.611   0.481   6.419  0.2715  0.5092 -0.1643
 2954TIP3   OH224528   2.508   1.599   1.262  0.5935 -0.2928  0.1436
 2954TIP3    H124529   2.453   1.600   1.184 -0.3487 -0.8814  0.7893
 2954TIP3    H224530   2.501   1.688   1.297  0.9298 -0.0599 -0.3720
 2955TIP3   OH224531   5.741   0.962   0.306  0.2913 -0.2199 -0.7597
 2955TIP3    H124532   5.758   0.932   0.396 -2.7562 -1.5897 -0.5408
 2955TIP3    H224533   5.815   0.927   0.256  2.2299  0.8172  1.1594
 2956TIP3   OH224534   6.308   2.671   7.480 -0.2143 -0.1768  0.3728
 2956TIP3    H124535   6.379   2.708   7.428  1.0491 -2.3304  0.4394
 2956TIP3    H224536   6.228   2.697   7.434  0.6792  1.1665 -0.4750
 2957TIP3   OH224537   2.831   1.984   1.735  0.5126 -0.0365  0.0603
 2957TIP3    H124538   2.921   1.952   1.737 -0.0494 -1.7057  2.3107
 2957TIP3    H224539   2.836   2.072   1.772  1.1594 -0.2935  0.5980
 2958TIP3   OH224540   0.569   4.362   0.663 -0.3631 -0.1242  0.0561
 2958TIP3    H124541   0.487   4.314   0.654 -0.9488  0.8462  0.0698
 2958TIP3    H224542   0.585   4.365   0.757  0.0901 -0.9548  0.0142
 2959TIP3   OH224543   6.227   5.899   0.989  0.0899  0.3349 -0.0539
 2959TIP3    H124544   6.262   5.987   0.973  0.3052  0.3108  0.2706
 2959TIP3    H224545   6.293   5.857   1.045  1.4514 -1.0342 -2.4819
 2960TIP3   OH224546   5.975   0.177   0.792 -0.9226  0.2420 -0.0502
 2960TIP3    H124547   5.904   0.214   0.739 -1.0269  0.4927  0.2565
 2960TIP3    H224548   6.052   0.181   0.736 -1.0959  0.2279 -0.2878
 2961TIP3   OH224549   4.644   3.209   1.193  0.2298  0.2991 -0.3849
 2961TIP3    H124550   4.664   3.120   1.223  0.3301 -0.0518 -1.4655
 2961TIP3    H224551   4.573   3.238   1.250 -1.2624 -1.2735 -1.3579
 2962TIP3   OH224552   2.918   0.632   1.912  0.0682  0.1792 -0.2503
 2962TIP3    H124553   2.840   0.619   1.966  0.3421 -1.7835 -0.2604
 2962TIP3    H224554   2.933   0.547   1.871  2.8558  0.1407  0.6315
 2963TIP3   OH224555   5.508   3.904   2.018  0.1871 -0.2197 -0.1986
 2963TIP3    H124556   5.500   3.877   2.110 -1.0218  0.4797 -0.0778
 2963TIP3    H224557   5.458   3.986   2.013 -0.0915 -0.4545 -1.5644
 2964TIP3   OH224558   5.267   5.718   0.997  0.2222  0.3982 -0.5114
 2964TIP3    H124559   5.280   5.715   0.902 -1.8337  0.4812 -0.8327
 2964TIP3    H224560   5.343   5.672   1.032  0.5253 -0.5390 -2.2556
 2965TIP3   OH224561   3.246   1.342   7.071 -0.4583 -0.1231  0.3405
 2965TIP3    H124562   3.290   1.379   7.148 -0.9744  0.9246  0.1516
 2965TIP3    H224563   3.295   1.378   6.997 -0.2079 -0.8147  0.1657
 2966TIP3   OH224564   3.290   2.964   6.637 -0.0529 -0.2642  0.3383
 2966TIP3    H124565   3.313   2.871   6.644 -1.2938 -0.5600  0.6195
 2966TIP3    H224566   3.315   3.001   6.722 -1.5659 -0.8134  1.0582
 2967TIP3   OH224567   1.818   3.375   6.096  0.5739  0.6616 -0.7877
 2967TIP3    H124568   1.840   3.341   6.009  2.1375 -0.2786 -0.0640
 2967TIP3    H224569   1.766   3.454   6.078 -0.2898 -0.2235 -2.5490
 2968TIP3   OH224570   4.741   1.400   0.012 -0.3383 -0.2394  0.3367
 2968TIP3    H124571   4.785   1.426  -0.069  1.7133 -1.4631  0.9744
 2968TIP3    H224572   4.758   1.471   0.073 -1.6406  0.5518 -0.1949
 2969TIP3   OH224573   2.502   0.717   1.188  0.2795 -0.1915 -0.0240
 2969TIP3    H124574   2.493   0.715   1.283  1.4812  0.7273  0.1490
 2969TIP3    H224575   2.552   0.798   1.171  2.1484 -1.5112 -1.2226
 2970TIP3   OH224576   5.692   6.168   0.974 -0.4347  0.2930 -0.3032
 2970TIP3    H124577   5.627   6.156   0.904  0.1027 -0.0472 -0.7572
 2970TIP3    H224578   5.648   6.135   1.053 -0.6688 -0.3402 -0.6832
 2971TIP3   OH224579   0.036   4.924   1.841 -0.4286 -0.5886  0.2427
 2971TIP3    H124580  -0.034   4.904   1.902 -1.5379  0.0249 -0.7843
 2971TIP3    H224581   0.014   4.877   1.761  0.8150 -1.1043  0.1736
 2972TIP3   OH224582   5.584   0.878   7.211  0.1877 -0.4831 -0.3693
 2972TIP3    H124583   5.621   0.837   7.133 -1.0060  0.8189 -1.6773
 2972TIP3    H224584   5.610   0.970   7.205 -1.1282 -0.0621 -0.0189
 2973TIP3   OH224585   0.540   1.240   6.903  0.0461 -0.1448 -0.3523
 2973TIP3    H124586   0.522   1.309   6.839  0.1923  0.6154  0.4012
 2973TIP3    H224587   0.562   1.287   6.984 -0.0636 -1.0758  0.2430
 2974TIP3   OH224588   3.913   4.185   1.126  0.6656  0.5433  0.5199
 2974TIP3    H124589   3.939   4.112   1.070 -0.8703  0.2153  0.1719
 2974TIP3    H224590   3.818   4.175   1.135  0.5089  2.1335  0.9817
 2975TIP3   OH224591   5.980   1.114   5.378  0.7496 -0.5572  0.1414
 2975TIP3    H124592   5.946   1.098   5.466  1.3939  1.1819  0.7521
 2975TIP3    H224593   5.918   1.176   5.339  1.5994  0.3490  0.1850
 2976TIP3   OH224594   6.177   0.915   0.413  0.5364 -1.2212 -0.0074
 2976TIP3    H124595   6.231   0.871   0.478 -1.2251 -1.3241  1.4583
 2976TIP3    H224596   6.120   0.846   0.379  0.1509 -0.7736 -0.2772
 2977TIP3   OH224597   0.566   0.468   6.585  0.1120  0.5713 -0.6462
 2977TIP3    H124598   0.484   0.419   6.589  0.1687  0.2710 -2.2889
 2977TIP3    H224599   0.623   0.425   6.648 -1.4341  1.7496  1.6959
 2978TIP3   OH224600   3.412   1.534   6.838  0.6638 -0.6215 -0.6214
 2978TIP3    H124601   3.484   1.588   6.805 -0.1993  1.4582  0.6982
 2978TIP3    H224602   3.403   1.561   6.930 -0.6756 -2.1141 -0.2785
 2979TIP3   OH224603   5.881   0.964   6.824 -0.3205  0.4857 -0.0785
 2979TIP3    H124604   5.912   0.978   6.735 -0.3297  2.4112  0.1817
 2979TIP3    H224605   5.960   0.949   6.875 -0.2997 -0.3945 -0.3487
 2980TIP3   OH224606   3.902   4.605   0.566  0.2144  0.2965 -0.7117
 2980TIP3    H124607   3.857   4.542   0.510 -0.5178 -0.2560  0.4523
 2980TIP3    H224608   3.851   4.606   0.647  1.0178  1.3525 -0.1879
 2981TIP3   OH224609   1.126   2.706   2.758  0.1829 -0.4888  0.5417
 2981TIP3    H124610   1.117   2.802   2.757  0.5188 -0.4248 -1.7791
 2981TIP3    H224611   1.036   2.674   2.758  0.0622 -0.1575  0.1606
 2982TIP3   OH224612   4.662   3.644   0.292  0.0960  0.3348  0.0708
 2982TIP3    H124613   4.700   3.589   0.360  0.3171 -0.2109 -0.4880
 2982TIP3    H224614   4.585   3.596   0.261  0.3651  0.2587 -0.5092
 2983TIP3   OH224615   6.179   2.049   0.378  0.1113 -0.1278 -0.2263
 2983TIP3    H124616   6.258   2.037   0.326 -0.6107 -1.8064 -1.0046
 2983TIP3    H224617   6.163   2.144   0.376  0.4372 -0.0734 -2.5771
 2984TIP3   OH224618   6.071   0.320   2.754  0.2499  0.4674  0.2659
 2984TIP3    H124619   6.070   0.342   2.847 -0.2688  2.2157 -0.1175
 2984TIP3    H224620   6.012   0.245   2.747  0.4825  0.1578  1.3671
 2985TIP3   OH224621   5.200   3.420   1.794 -0.1558  0.1911 -0.8003
 2985TIP3    H124622   5.272   3.475   1.764  2.1721 -2.2432  0.0388
 2985TIP3    H224623   5.206   3.422   1.889  0.5201 -2.0826 -0.7408
 2986TIP3   OH224624   1.340   3.800   7.753 -0.4826 -0.3848 -0.2065
 2986TIP3    H124625   1.250   3.768   7.746 -0.0447 -1.4940 -1.0589
 2986TIP3    H224626   1.357   3.802   7.847 -1.2039 -0.7438 -0.0607
 2987TIP3   OH224627   3.547   3.352   7.284 -0.3007  0.4311 -0.2161
 2987TIP3    H124628   3.554   3.262   7.315  0.5770  0.0759 -1.3847
 2987TIP3    H224629   3.566   3.347   7.191 -0.2688  1.8277 -0.3028
 2988TIP3   OH224630   2.668   3.341   2.939  0.0231  0.1246  0.1755
 2988TIP3    H124631   2.598   3.276   2.929  0.7319 -0.6260  0.0320
 2988TIP3    H224632   2.748   3.294   2.918  0.7394  0.5718  1.7418
 2989TIP3   OH224633   5.660   3.671   7.646  0.3199  0.2162 -0.6191
 2989TIP3    H124634   5.641   3.666   7.739  0.9727 -0.2306 -0.5069
 2989TIP3    H224635   5.626   3.588   7.610 -0.3227  0.5708 -0.8604
 2990TIP3   OH224636   5.521   5.225   0.537 -0.1729  0.0056  1.2937
 2990TIP3    H124637   5.600   5.182   0.506 -0.2765  0.0459  0.9707
 2990TIP3    H224638   5.552   5.304   0.581 -0.0954  0.7044  0.0401
 2991TIP3   OH224639   1.185   4.260   1.630  0.1090 -0.0943  0.3175
 2991TIP3    H124640   1.250   4.232   1.565  2.4989  1.4533  1.8886
 2991TIP3    H224641   1.168   4.181   1.682 -1.0705 -1.0859 -1.4608
 2992TIP3   OH224642   3.560   0.139   0.584  0.3405  0.4602  0.4808
 2992TIP3    H124643   3.631   0.086   0.619 -0.3115 -0.2440  0.7891
 2992TIP3    H224644   3.512   0.169   0.661 -0.4689 -0.1944  0.2582
 2993TIP3   OH224645   2.754   3.456   2.024 -0.8701  0.0501 -0.1517
 2993TIP3    H124646   2.690   3.407   2.075 -1.6014  0.2173 -0.9020
 2993TIP3    H224647   2.778   3.398   1.952  2.5552 -1.5131  2.0081
 2994TIP3   OH224648   2.630   3.169   1.038 -0.1588  0.6923 -0.3376
 2994TIP3    H124649   2.543   3.130   1.032  0.6100 -1.0012 -0.9466
 2994TIP3    H224650   2.688   3.105   0.997  1.4275  1.6261  0.3741
 2995TIP3   OH224651   4.345   1.515   0.185 -0.3589  0.4776  0.0261
 2995TIP3    H124652   4.355   1.582   0.118  0.3809 -0.2332 -0.6009
 2995TIP3    H224653   4.252   1.518   0.209 -1.0309 -0.3425 -2.2111
 2996TIP3   OH224654   0.710   4.908   6.274 -0.4651  0.0449 -0.4562
 2996TIP3    H124655   0.691   4.924   6.182 -1.4884  0.0291 -0.2673
 2996TIP3    H224656   0.747   4.991   6.306  1.2413 -0.3945 -1.1856
 2997TIP3   OH224657   0.874   5.858   0.775 -0.3449 -0.2555 -0.0940
 2997TIP3    H124658   0.896   5.854   0.869 -1.9103  2.1277  0.4655
 2997TIP3    H224659   0.790   5.812   0.768  0.8179 -2.4188 -0.8155
 2998TIP3   OH224660   0.247   5.199   1.076 -0.4096 -0.2462 -0.2198
 2998TIP3    H124661   0.242   5.147   0.996 -1.0623  2.1686 -1.8506
 2998TIP3    H224662   0.337   5.232   1.077 -0.0695 -1.1389  0.6851
 2999TIP3   OH224663   4.089   5.771   1.363  0.7814  0.1706  0.2282
 2999TIP3    H124664   4.002   5.767   1.403 -0.2551  2.1787 -1.5735
 2999TIP3    H224665   4.131   5.688   1.386 -2.8349 -2.4265 -1.5034
 3000TIP3   OH224666   4.457   3.024   1.037  0.0658 -0.0279  0.0160
 3000TIP3    H124667   4.484   3.114   1.018  0.0909  0.2140  1.1193
 3000TIP3    H224668   4.361   3.028   1.037 -0.0157 -0.6166 -2.6559
 3001TIP3   OH224669   1.066   1.073   7.364  0.1348 -0.7004 -0.3754
 3001TIP3    H124670   1.125   1.072   7.440  0.2146 -1.2414 -0.4403
 3001TIP3    H224671   1.039   0.982   7.354 -0.6704 -0.4628 -0.3830
 3002TIP3   OH224672   5.482   4.326   7.355  0.1332  0.1181  0.6690
 3002TIP3    H124673   5.572   4.342   7.326  0.1965 -0.7548  0.3460
 3002TIP3    H224674   5.478   4.365   7.442  0.9886 -0.3139  0.9096
 3003TIP3   OH224675   0.799   3.578   6.415  0.1407  0.0729 -0.4875
 3003TIP3    H124676   0.819   3.672   6.417 -1.4583  0.4302  0.6620
 3003TIP3    H224677   0.802   3.555   6.322  1.8328  0.9322 -0.7071
 3004TIP3   OH224678   5.604   0.521   0.608  0.3019  0.1416 -0.3309
 3004TIP3    H124679   5.539   0.554   0.670  0.7565  0.8167 -0.1924
 3004TIP3    H224680   5.584   0.567   0.526 -0.7144 -1.2419 -0.8971
 3005TIP3   OH224681   2.692   0.824   0.808 -0.5003 -0.3499  0.0498
 3005TIP3    H124682   2.746   0.869   0.874 -0.5174  3.7663 -2.3811
 3005TIP3    H224683   2.745   0.826   0.728 -2.4785 -0.2463 -1.3360
 3006TIP3   OH224684   5.033   1.823   6.923  0.0213  0.0219  0.1023
 3006TIP3    H124685   5.105   1.805   6.984 -0.0731  2.1707  0.9490
 3006TIP3    H224686   4.960   1.849   6.980 -0.5181  0.6535 -0.8617
 3007TIP3   OH224687   3.786   4.246   0.762  0.6578  0.5140 -0.1358
 3007TIP3    H124688   3.836   4.173   0.727 -0.7316 -0.6577  0.2171
 3007TIP3    H224689   3.753   4.292   0.685 -2.1612 -1.8859 -0.5461
 3008TIP3   OH224690   2.629   2.331   6.489  0.8694 -0.5569  0.0537
 3008TIP3    H124691   2.582   2.284   6.420 -1.1729 -0.5380  1.3175
 3008TIP3    H224692   2.634   2.421   6.458 -0.4713 -0.4461  0.0833
 3009TIP3   OH224693   5.789   2.556   6.411 -0.0493  0.1896  0.0854
 3009TIP3    H124694   5.832   2.477   6.378 -0.7316 -0.1089 -0.1127
 3009TIP3    H224695   5.719   2.573   6.347  0.4603  1.2922 -0.1954
 3010TIP3   OH224696   1.095   0.470   0.286 -0.4090  0.2623 -0.1151
 3010TIP3    H124697   1.179   0.435   0.318  0.0608  0.9030 -0.6164
 3010TIP3    H224698   1.120   0.533   0.219 -1.3053  0.4424 -0.2863
 3011TIP3   OH224699   0.185   1.438   7.495 -0.8560 -0.1171 -0.0640
 3011TIP3    H124700   0.094   1.466   7.506 -0.5397  0.3540  1.5566
 3011TIP3    H224701   0.227   1.510   7.447 -0.4530  1.5705  2.6066
 3012TIP3   OH224702   4.905   2.613   0.352  0.0492  0.1884  0.2615
 3012TIP3    H124703   4.855   2.621   0.270  0.3456 -2.4588 -0.2524
 3012TIP3    H224704   4.990   2.651   0.330 -0.4926  1.3295  0.0042
 3013TIP3   OH224705   5.783   1.290   1.934 -0.5933 -0.2454 -0.0596
 3013TIP3    H124706   5.758   1.376   1.899 -2.7158 -0.7723  0.0025
 3013TIP3    H224707   5.720   1.274   2.005  0.7060 -1.2213  0.9262
 3014TIP3   OH224708   1.350   4.242   7.398  0.5059 -0.0389  0.2795
 3014TIP3    H124709   1.385   4.290   7.323 -0.9187 -0.4300 -0.6754
 3014TIP3    H224710   1.360   4.150   7.374 -0.9788 -0.1592  0.0444
 3015TIP3   OH224711   0.252   3.608   1.518  0.1340  0.0651  0.6309
 3015TIP3    H124712   0.314   3.659   1.465 -0.1517  0.2038  0.4256
 3015TIP3    H224713   0.305   3.573   1.590  0.6793 -0.6678 -0.0982
 3016TIP3   OH224714   1.996   0.300   7.759 -0.0692 -0.4373 -0.5417
 3016TIP3    H124715   1.949   0.242   7.819  0.8372  0.2995  0.9489
 3016TIP3    H224716   2.087   0.269   7.762 -0.2824 -1.5225 -2.9725
 3017TIP3   OH224717   3.557   2.897   7.245  0.0507  0.3482 -0.4175
 3017TIP3    H124718   3.487   2.946   7.289 -0.0025 -0.6222  0.6047
 3017TIP3    H224719   3.522   2.880   7.157 -0.9532 -0.0226  0.0376
 3018TIP3   OH224720   0.276   5.565   0.481 -0.5745 -0.1992  0.2352
 3018TIP3    H124721   0.361   5.522   0.489  0.3439  1.1771 -1.5879
 3018TIP3    H224722   0.222   5.501   0.435 -0.1645 -0.5879  0.2828
 3019TIP3   OH224723   1.892   3.457   7.028  0.3334 -0.4224  0.3553
 3019TIP3    H124724   1.902   3.363   7.039 -1.6244 -0.9664 -1.6989
 3019TIP3    H224725   1.961   3.482   6.967  1.5926 -0.2579  1.8006
 3020TIP3   OH224726   2.573   5.349   2.223 -0.5962  0.0418 -0.0720
 3020TIP3    H124727   2.569   5.409   2.298  1.0218  0.7388 -0.5051
 3020TIP3    H224728   2.601   5.265   2.260  2.2302  0.8807 -0.0804
 3021TIP3   OH224729   1.254   3.848   0.717  0.1681  0.1746  0.0199
 3021TIP3    H124730   1.178   3.803   0.679  0.1423  0.4192 -0.2186
 3021TIP3    H224731   1.262   3.810   0.805  1.0818 -1.4269 -0.7073
 3022TIP3   OH224732   1.401   4.918   2.730  0.8563 -0.3882 -0.6324
 3022TIP3    H124733   1.444   4.859   2.792  0.1726  0.5951  0.8141
 3022TIP3    H224734   1.309   4.918   2.755  0.5309 -0.1048 -1.7648
 3023TIP3   OH224735   4.123   1.099   1.463 -0.0371 -0.0251 -0.3030
 3023TIP3    H124736   4.153   1.062   1.380 -0.9401 -0.7632 -0.3158
 3023TIP3    H224737   4.029   1.079   1.466  0.1305 -0.7150  1.2570
 3024TIP3   OH224738   2.407   6.158   1.621 -0.5804 -0.3012  0.5044
 3024TIP3    H124739   2.324   6.111   1.637  0.2951 -2.4299 -0.8003
 3024TIP3    H224740   2.404   6.181   1.528  0.4110 -0.6746  0.3688
 3025TIP3   OH224741   2.172   1.887   6.371  0.8102 -0.1544  0.1839
 3025TIP3    H124742   2.263   1.913   6.354  0.7856  0.6172  1.1852
 3025TIP3    H224743   2.180   1.800   6.410  1.0282 -0.6314 -0.8646
 3026TIP3   OH224744   1.203   1.034   7.584  0.3941 -0.0604 -0.4273
 3026TIP3    H124745   1.148   0.963   7.615  0.8670 -1.2855 -2.2363
 3026TIP3    H224746   1.266   1.049   7.655 -1.8297  1.0409  1.4731
 3027TIP3   OH224747   3.747   2.485   6.900 -0.7012 -0.9698 -0.2183
 3027TIP3    H124748   3.763   2.391   6.910  2.3056 -0.5087  0.2512
 3027TIP3    H224749   3.825   2.526   6.936 -1.8783  1.7387 -0.5490
 3028TIP3   OH224750   5.442   4.669   0.032 -0.1687  0.1866 -0.2284
 3028TIP3    H124751   5.347   4.669   0.035 -0.2162 -2.2138  0.2281
 3028TIP3    H224752   5.469   4.657   0.123  0.4550 -1.8008 -0.6260
 3029TIP3   OH224753   3.699   4.929   7.143 -0.5645 -0.5843 -0.3884
 3029TIP3    H124754   3.691   4.982   7.064 -2.7857  1.1194  0.8574
 3029TIP3    H224755   3.794   4.917   7.155 -0.0853  1.1865 -1.9709
 3030TIP3   OH224756   0.190   3.257   1.844 -0.0833 -1.0200 -0.0915
 3030TIP3    H124757   0.194   3.338   1.896 -0.0857 -1.4069  0.5200
 3030TIP3    H224758   0.184   3.187   1.909 -2.0183 -1.4117 -0.6291
 3031TIP3   OH224759   5.790   5.797   2.008 -0.4303 -0.2718  0.1149
 3031TIP3    H124760   5.784   5.743   2.087  0.1853 -2.9628 -1.5462
 3031TIP3    H224761   5.800   5.734   1.937  2.5572  2.1120 -1.8109
 3032TIP3   OH224762   0.276   0.231   1.890  0.1340 -0.0249 -0.4819
 3032TIP3    H124763   0.349   0.171   1.903  1.3123  0.9034 -2.3829
 3032TIP3    H224764   0.209   0.179   1.846 -0.5561 -0.9650  1.5456
 3033TIP3   OH224765   4.242   1.130   5.867 -0.3693  0.1511  0.1359
 3033TIP3    H124766   4.218   1.192   5.936  0.2408  1.1387 -0.5202
 3033TIP3    H224767   4.292   1.063   5.913  0.3479  0.9883  0.6158
 3034TIP3   OH224768   3.977   4.500   7.611  0.2857 -0.3859  0.5585
 3034TIP3    H124769   3.886   4.473   7.616  0.3761 -1.0739 -1.0414
 3034TIP3    H224770   4.027   4.419   7.601  1.1146 -0.0417  1.6305
 3035TIP3   OH224771   3.722   4.692   6.012 -0.2052 -0.3615 -0.2057
 3035TIP3    H124772   3.717   4.739   5.929 -0.2137  0.8378  0.4625
 3035TIP3    H224773   3.708   4.600   5.988  0.7998 -0.1647 -1.6574
 3036TIP3   OH224774   5.428   1.000   1.384 -0.4963  0.1177 -0.7745
 3036TIP3    H124775   5.378   1.040   1.455 -1.9334  0.5183 -1.9588
 3036TIP3    H224776   5.452   0.913   1.416 -0.3621  0.6148  0.5132
 3037TIP3   OH224777   6.224   0.721   2.776 -0.1924  0.1343  0.4905
 3037TIP3    H124778   6.178   0.733   2.859 -0.2923  1.8907  0.2245
 3037TIP3    H224779   6.256   0.808   2.754 -0.8863 -0.1041 -1.7106
 3038TIP3   OH224780   6.233   1.791   0.096 -0.4108  0.0267 -0.6107
 3038TIP3    H124781   6.205   1.712   0.141 -0.3772  0.1594 -0.3533
 3038TIP3    H224782   6.325   1.775   0.075 -0.5173 -0.1702 -0.9307
 3039TIP3   OH224783   1.424   1.475   7.025 -0.0905  0.1804  0.5215
 3039TIP3    H124784   1.415   1.555   6.974  0.1738  1.1428  1.9207
 3039TIP3    H224785   1.335   1.444   7.040 -0.2779  0.9819  1.1131
 3040TIP3   OH224786   5.000   4.915   7.080 -0.2405 -0.3924 -0.0525
 3040TIP3    H124787   5.005   4.843   7.016  1.2127  1.3182 -1.9879
 3040TIP3    H224788   4.980   4.871   7.163 -0.6010 -2.8939 -1.3480
 3041TIP3   OH224789   4.602   0.502   7.733 -0.0393  0.2739  0.2969
 3041TIP3    H124790   4.564   0.432   7.679 -0.1036  0.1207  0.5381
 3041TIP3    H224791   4.526   0.554   7.760 -0.2297 -0.6563  1.6750
 3042TIP3   OH224792   3.304   4.315   6.239  0.0127 -0.5593  0.5843
 3042TIP3    H124793   3.225   4.280   6.279 -0.5125  0.0786  0.1472
 3042TIP3    H224794   3.377   4.275   6.286 -0.5798 -0.1960  1.8318
 3043TIP3   OH224795   4.200   1.146   7.647 -0.3750  0.2583 -0.0161
 3043TIP3    H124796   4.201   1.154   7.742 -0.2050 -0.8302  0.0955
 3043TIP3    H224797   4.293   1.146   7.622 -0.4237  0.7503 -0.2082
 3044TIP3   OH224798   0.642   4.414   6.255  0.7821  0.6328  0.1023
 3044TIP3    H124799   0.674   4.493   6.212  1.2828 -0.3450 -1.4093
 3044TIP3    H224800   0.570   4.384   6.199  0.9970 -0.3038  0.3105
 3045TIP3   OH224801   0.249   5.288   2.693 -0.4296 -0.3363 -0.4213
 3045TIP3    H124802   0.217   5.203   2.722  0.9447 -1.1300 -1.1270
 3045TIP3    H224803   0.343   5.286   2.710 -0.5210  1.5108  0.6340
 3046TIP3   OH224804   1.877   6.300   6.101 -0.9587 -0.1163 -0.0113
 3046TIP3    H124805   1.860   6.394   6.101  0.5764  0.2075 -1.0936
 3046TIP3    H224806   1.960   6.291   6.148 -0.6360 -0.8071 -0.6998
 3047TIP3   OH224807   2.137   4.213   6.735 -0.3994 -0.5013  0.0355
 3047TIP3    H124808   2.220   4.245   6.699 -0.3928 -0.8974 -0.3099
 3047TIP3    H224809   2.076   4.220   6.662 -0.2295 -1.9405 -0.2764
 3048TIP3   OH224810   2.463   2.970   6.849 -0.3467 -0.0379 -0.4910
 3048TIP3    H124811   2.457   2.916   6.928 -1.5574  1.2092  0.3278
 3048TIP3    H224812   2.401   2.931   6.788 -2.5371  1.3188  0.7247
 3049TIP3   OH224813   1.850   2.161   2.038  0.0662  0.6440 -0.2891
 3049TIP3    H124814   1.888   2.248   2.050 -0.1831  0.7074  0.0375
 3049TIP3    H224815   1.784   2.154   2.107 -0.3508  0.4417 -0.7059
 3050TIP3   OH224816   5.524   2.016   1.257 -0.4259 -0.1417  0.4599
 3050TIP3    H124817   5.606   1.977   1.285  0.0751  1.4703  1.4159
 3050TIP3    H224818   5.548   2.070   1.181 -0.9003 -0.7938 -0.1730
 3051TIP3   OH224819   2.677   5.551   0.778 -0.3541  0.0424 -0.1077
 3051TIP3    H124820   2.742   5.504   0.828  0.4323  0.2511 -0.9064
 3051TIP3    H224821   2.594   5.507   0.798  0.0628 -0.3904  0.7049
 3052TIP3   OH224822   4.444   0.783   1.328  0.3021  0.1859 -0.2188
 3052TIP3    H124823   4.365   0.778   1.382  1.2896 -0.0975  1.2858
 3052TIP3    H224824   4.443   0.872   1.293 -1.0254 -0.0375 -0.8267
 3053TIP3   OH224825   5.674   2.795   6.992  0.2738  0.5189 -0.1734
 3053TIP3    H124826   5.615   2.763   6.924 -1.5079  2.6018  0.2817
 3053TIP3    H224827   5.756   2.814   6.946 -0.3546  0.3016 -1.4200
 3054TIP3   OH224828   1.831   5.881   1.550  0.5761 -0.2542 -0.0204
 3054TIP3    H124829   1.742   5.881   1.514  1.4734  0.7427 -2.4709
 3054TIP3    H224830   1.833   5.807   1.611 -1.8117 -0.4878 -0.1325
 3055TIP3   OH224831   1.215   1.423   1.509 -0.3761 -0.6820 -0.0189
 3055TIP3    H124832   1.300   1.465   1.502 -0.3401 -0.6674  0.4913
 3055TIP3    H224833   1.209   1.367   1.431 -0.1003 -0.3261 -0.2964
 3056TIP3   OH224834   0.190   2.513   0.568  0.7288  0.4593  0.3253
 3056TIP3    H124835   0.165   2.442   0.510  0.3805  0.9679 -0.1563
 3056TIP3    H224836   0.226   2.581   0.510  1.6285  0.4387  0.8322
 3057TIP3   OH224837   4.260   5.567   7.717 -0.6642 -0.1004 -0.0730
 3057TIP3    H124838   4.313   5.501   7.673 -0.1329 -0.4755  1.0649
 3057TIP3    H224839   4.184   5.579   7.661 -0.6138 -1.4576 -0.4658
 3058TIP3   OH224840   4.120   3.721   6.602  0.1127 -0.0359  0.1131
 3058TIP3    H124841   4.092   3.722   6.694 -1.4747 -2.8309 -0.2132
 3058TIP3    H224842   4.191   3.657   6.600  2.4942  2.4688 -0.1411
 3059TIP3   OH224843   2.001   1.751   0.915  0.0709 -0.1033  0.4660
 3059TIP3    H124844   2.007   1.763   1.010  2.9212 -1.8445  0.6202
 3059TIP3    H224845   2.006   1.840   0.880 -2.7575  0.7497  1.8725
 3060TIP3   OH224846   0.739   5.429   7.204 -0.7537  0.8162  0.7922
 3060TIP3    H124847   0.764   5.496   7.140 -1.4967 -0.3122 -0.7568
 3060TIP3    H224848   0.822   5.387   7.229 -0.5519  0.4652 -0.3983
 3061TIP3   OH224849   2.936   1.615   2.090 -0.2982  0.0189 -0.2920
 3061TIP3    H124850   2.952   1.706   2.066  0.9209 -0.2692 -0.6706
 3061TIP3    H224851   2.868   1.586   2.030 -1.2290  0.8735  0.3174
 3062TIP3   OH224852   3.465   0.361   1.193 -0.4250  0.4189  0.1428
 3062TIP3    H124853   3.487   0.355   1.286  1.9310  0.5148 -0.3466
 3062TIP3    H224854   3.378   0.322   1.186  0.0163 -1.0845  2.1482
 3063TIP3   OH224855   0.584   5.564   0.288 -0.1370 -0.1844  0.8778
 3063TIP3    H124856   0.644   5.589   0.359  1.0520 -0.8658  0.1629
 3063TIP3    H224857   0.604   5.626   0.217 -1.0778  0.2792  1.0043
 3064TIP3   OH224858   3.555   1.016   0.968  0.2734  0.3957  0.2397
 3064TIP3    H124859   3.531   0.931   0.931 -1.3596  1.5170 -1.5165
 3064TIP3    H224860   3.541   1.078   0.896  0.9764  2.2222  1.5889
 3065TIP3   OH224861   0.841   4.276   0.725  0.1230  0.0888  0.2468
 3065TIP3    H124862   0.836   4.259   0.630 -0.7621  1.1412  0.0864
 3065TIP3    H224863   0.828   4.370   0.733 -0.1467 -0.0432  1.4521
 3066TIP3   OH224864   5.672   0.460   1.790  0.6644  0.0956  0.2894
 3066TIP3    H124865   5.723   0.398   1.842 -0.9085 -0.7248  0.9544
 3066TIP3    H224866   5.729   0.535   1.778  1.7742 -0.5075  1.5457
 3067TIP3   OH224867   2.641   4.108   7.749  0.0081  0.0959  0.0410
 3067TIP3    H124868   2.729   4.083   7.719  0.0159 -0.4280  0.4845
 3067TIP3    H224869   2.605   4.027   7.786 -0.2155  0.5975  0.9328
 3068TIP3   OH224870   0.508   3.106   7.009  0.0241  0.2454 -0.0348
 3068TIP3    H124871   0.597   3.084   6.981  0.0288  0.3555 -0.1095
 3068TIP3    H224872   0.520   3.160   7.087  0.0397  0.6328 -0.3001
 3069TIP3   OH224873   2.153   6.293   6.816  0.3474 -0.2174 -0.0242
 3069TIP3    H124874   2.169   6.387   6.824  1.7090 -0.3778 -0.5695
 3069TIP3    H224875   2.075   6.287   6.760  0.7301  0.5860 -0.6724
 3070TIP3   OH224876   3.261   4.878   7.511 -0.4039 -0.0145 -0.0940
 3070TIP3    H124877   3.280   4.927   7.591 -0.6002  1.6556 -1.0408
 3070TIP3    H224878   3.343   4.831   7.493  0.7657  2.0749 -0.5995
 3071TIP3   OH224879   2.474   1.111   6.116 -0.2479  0.0751 -0.1544
 3071TIP3    H124880   2.434   1.045   6.060  0.5022  0.8625 -1.6800
 3071TIP3    H224881   2.447   1.195   6.077 -1.8591  0.7593  2.1954
 3072TIP3   OH224882   0.333   2.397   2.439 -0.0292  0.0686 -0.3523
 3072TIP3    H124883   0.399   2.380   2.372  0.2265  0.5307 -0.2205
 3072TIP3    H224884   0.367   2.471   2.489 -0.7087  0.4013 -0.3676
 3073TIP3   OH224885   5.199   4.696   2.269 -0.5259  0.0445 -0.3894
 3073TIP3    H124886   5.148   4.678   2.347 -2.9534 -0.6338 -2.0229
 3073TIP3    H224887   5.251   4.617   2.255  1.7349  1.0370  1.7229
 3074TIP3   OH224888   5.069   0.921   5.801  0.1484 -0.0919 -0.1944
 3074TIP3    H124889   4.997   0.887   5.748 -0.3084 -0.4322  0.6115
 3074TIP3    H224890   5.058   1.016   5.800 -0.5888 -0.1649  0.2836
 3075TIP3   OH224891   0.668   3.046   6.696 -0.1540 -0.0021 -0.0358
 3075TIP3    H124892   0.752   3.052   6.741  1.1292  0.3751 -2.3185
 3075TIP3    H224893   0.626   2.968   6.732  1.5746 -0.7124  0.5262
 3076TIP3   OH224894   4.141   3.887   6.871 -0.1726 -0.2107  0.1719
 3076TIP3    H124895   4.162   3.940   6.795  0.5747 -1.6691 -0.6937
 3076TIP3    H224896   4.206   3.912   6.937 -0.7684  0.9951  0.3256
 3077TIP3   OH224897   2.199   0.643   0.805  0.6922  0.2496  0.1090
 3077TIP3    H124898   2.167   0.670   0.891 -0.5503  0.0582 -0.2892
 3077TIP3    H224899   2.294   0.660   0.809  0.4697  1.3758  1.0893
 3078TIP3   OH224900   2.032   4.480   0.532  0.2544 -0.3847 -0.4286
 3078TIP3    H124901   1.942   4.507   0.549  0.9867  1.6713  0.5735
 3078TIP3    H224902   2.055   4.522   0.449  0.7793  0.4980  0.1460
 3079TIP3   OH224903   4.853   5.805   0.118  0.5333 -0.3095  0.2156
 3079TIP3    H124904   4.799   5.827   0.042  1.0142  1.7078  0.3961
 3079TIP3    H224905   4.818   5.722   0.150 -1.2892  0.0631 -0.7267
 3080TIP3   OH224906   1.868   3.652   6.788 -0.4306  0.2734 -0.4120
 3080TIP3    H124907   1.824   3.581   6.740  0.7521 -1.0537  0.4148
 3080TIP3    H224908   1.798   3.717   6.803 -1.4546 -0.5229 -1.4990
 3081TIP3   OH224909   2.927   5.779   1.537  0.3490  0.1667  0.5639
 3081TIP3    H124910   3.002   5.725   1.510  0.5393  1.7622 -2.6325
 3081TIP3    H224911   2.851   5.732   1.504  0.1838  0.0518  1.1006
 3082TIP3   OH224912   1.651   0.811   1.590 -0.5367  0.0706 -0.5153
 3082TIP3    H124913   1.613   0.809   1.678  0.2118 -1.5220 -0.1941
 3082TIP3    H224914   1.617   0.892   1.551  2.2758  3.0790  2.6197
 3083TIP3   OH224915   5.379   0.605   6.983  0.8882  0.4958 -0.1011
 3083TIP3    H124916   5.377   0.544   7.057 -0.3120  0.6555  0.0283
 3083TIP3    H224917   5.359   0.691   7.022 -2.6603  0.1985 -0.8597
 3084TIP3   OH224918   1.340   2.224   1.164  0.3557 -0.4496  0.0359
 3084TIP3    H124919   1.292   2.158   1.114 -1.4338  0.5640  0.3115
 3084TIP3    H224920   1.273   2.285   1.193  1.3681 -0.6881  3.2671
 3085TIP3   OH224921   0.677   0.340   2.109  0.0490 -0.2378  0.6121
 3085TIP3    H124922   0.705   0.260   2.153 -0.7345 -1.1463 -0.4794
 3085TIP3    H224923   0.581   0.341   2.118  0.1366  1.3591  1.8734
 3086TIP3   OH224924   2.723   5.035   7.604 -0.1397  0.1932  0.0750
 3086TIP3    H124925   2.669   5.092   7.550 -1.0603 -0.2063  0.5606
 3086TIP3    H224926   2.749   4.964   7.545 -1.0156 -0.1612  0.1069
 3087TIP3   OH224927   1.580   5.686   2.477  0.2702  0.0332 -1.0314
 3087TIP3    H124928   1.615   5.711   2.562  0.8285  0.5935 -1.4141
 3087TIP3    H224929   1.619   5.601   2.459 -1.4983 -1.1096  0.2015
 3088TIP3   OH224930   5.361   1.135   7.190 -0.1766 -0.2727  0.2893
 3088TIP3    H124931   5.342   1.068   7.125 -0.0632 -0.8567  0.8456
 3088TIP3    H224932   5.437   1.183   7.155  0.3143 -1.0225  0.3052
 3089TIP3   OH224933   4.218   6.199   0.598 -0.4421  0.3236 -0.1070
 3089TIP3    H124934   4.216   6.109   0.567 -0.2420  0.2196  0.1789
 3089TIP3    H224935   4.142   6.207   0.656 -1.5814  0.8892 -1.6174
 3090TIP3   OH224936   6.224   4.619   1.888 -0.0936  0.4844 -0.6988
 3090TIP3    H124937   6.211   4.599   1.980 -1.7039 -3.9471 -1.6210
 3090TIP3    H224938   6.135   4.629   1.853  0.3798  0.0800 -2.0819
 3091TIP3   OH224939   3.077   5.520   6.572 -0.0151  0.0224  0.3114
 3091TIP3    H124940   3.011   5.475   6.519 -0.2977 -1.0516  1.5182
 3091TIP3    H224941   3.160   5.483   6.543  0.0144  0.8400 -0.6957
 3092TIP3   OH224942   3.784   2.642   0.386 -0.0065 -0.4633 -0.6009
 3092TIP3    H124943   3.873   2.608   0.373 -0.3154 -0.7847 -2.0454
 3092TIP3    H224944   3.734   2.567   0.418 -0.3741 -1.0644 -2.4750
 3093TIP3   OH224945   6.259   5.963   0.674  0.5702 -0.3087 -0.1485
 3093TIP3    H124946   6.316   5.895   0.709  0.2632 -0.4689  0.0433
 3093TIP3    H224947   6.219   6.003   0.751  1.4671  0.7338 -0.1980
 3094TIP3   OH224948   5.496   4.038   6.575 -0.2528  0.3799 -0.0670
 3094TIP3    H124949   5.480   4.009   6.485 -0.6002  0.1345  0.0724
 3094TIP3    H224950   5.488   3.959   6.628  0.6264  0.3980  0.1074
 3095TIP3   OH224951   3.911   2.991   1.987  0.6037  0.1167 -0.1910
 3095TIP3    H124952   3.870   3.042   2.056  0.0135  0.5867 -0.8811
 3095TIP3    H224953   4.004   2.991   2.009  0.3799 -0.0268  0.7817
 3096TIP3   OH224954   5.530   2.714   6.735  0.5434 -0.6685 -0.7046
 3096TIP3    H124955   5.590   2.764   6.679 -0.7838  1.4894 -0.3503
 3096TIP3    H224956   5.444   2.724   6.693 -0.3178  0.2009  1.1335
 3097TIP3   OH224957   4.906   0.737   1.985 -0.1353  0.1670 -0.3828
 3097TIP3    H124958   4.857   0.800   2.038 -1.3910 -1.1998  0.1768
 3097TIP3    H224959   4.899   0.769   1.896 -0.5855  0.9202 -0.0834
 3098TIP3   OH224960   4.406   0.332   7.119 -0.7546  0.2095 -0.2957
 3098TIP3    H124961   4.350   0.362   7.190 -0.7808 -2.8957  1.1635
 3098TIP3    H224962   4.347   0.328   7.043 -1.9613 -0.7532  0.6381
 3099TIP3   OH224963   1.941   4.783   6.998 -0.4867 -0.3176 -0.3341
 3099TIP3    H124964   1.996   4.744   6.931  0.2451 -1.2375  0.7611
 3099TIP3    H224965   1.996   4.786   7.076 -1.2530  0.8951  0.2027
 3100TIP3   OH224966   4.502   4.649   0.717  0.3022 -0.8429 -0.2949
 3100TIP3    H124967   4.570   4.602   0.668  1.3143 -0.0173  0.2673
 3100TIP3    H224968   4.483   4.593   0.792  0.3569 -1.0909 -0.4651
 3101TIP3   OH224969   2.308   5.958   6.217 -0.4357 -0.4294  0.1935
 3101TIP3    H124970   2.354   5.948   6.133  0.2706  0.4144  0.4560
 3101TIP3    H224971   2.326   6.048   6.243 -1.7209 -0.2796  0.6412
 3102TIP3   OH224972   2.035   1.253   2.186 -0.3717  0.7360  0.7049
 3102TIP3    H124973   2.102   1.250   2.254 -0.0244 -2.8000  0.3773
 3102TIP3    H224974   2.062   1.325   2.129  1.2756  1.5149  2.3616
 3103TIP3   OH224975   5.765   2.782   0.707  0.6848 -0.6144 -0.3186
 3103TIP3    H124976   5.724   2.778   0.621  0.9222 -0.2105 -0.4540
 3103TIP3    H224977   5.712   2.846   0.755  2.0484  1.1196 -1.0015
 3104TIP3   OH224978   1.507   2.973   0.523  0.1921  0.1108 -0.6122
 3104TIP3    H124979   1.416   2.964   0.497 -0.0327 -2.2000  0.7007
 3104TIP3    H224980   1.548   2.890   0.498  1.4621  0.3769  0.4603
 3105TIP3   OH224981   4.758   1.870   7.424  0.2152  0.1806 -0.4745
 3105TIP3    H124982   4.711   1.843   7.503 -1.1557 -0.7574 -1.5683
 3105TIP3    H224983   4.705   1.940   7.387  1.2349  1.1204 -0.2142
 3106TIP3   OH224984   0.327   3.456   7.296  0.2476  0.0191 -0.5582
 3106TIP3    H124985   0.314   3.495   7.382  1.4338 -1.9581  0.5803
 3106TIP3    H224986   0.303   3.525   7.234  0.8314  2.0032  1.3374
 3107TIP3   OH224987   2.172   4.490   2.541 -0.4726  0.1840 -0.3072
 3107TIP3    H124988   2.214   4.548   2.477 -0.6428 -0.9996 -1.5424
 3107TIP3    H224989   2.080   4.488   2.515 -0.6710  0.1796  0.3746
 3108TIP3   OH224990   1.480   1.195   1.968 -0.3053  0.0131 -0.0011
 3108TIP3    H124991   1.456   1.108   1.937 -2.6402  0.6160 -0.0371
 3108TIP3    H224992   1.562   1.181   2.017 -0.7670 -2.2394  0.2286
 3109TIP3   OH224993   4.035   4.870   2.114 -0.5681  0.3994  0.0984
 3109TIP3    H124994   4.001   4.914   2.035  1.0892  0.1919 -0.7636
 3109TIP3    H224995   4.099   4.932   2.149  0.3747 -0.4934 -0.0289
 3110TIP3   OH224996   1.989   5.129   0.475  0.2025 -0.4178 -0.9636
 3110TIP3    H124997   1.906   5.168   0.449  0.1946 -0.6443 -1.2851
 3110TIP3    H224998   2.055   5.193   0.448  0.0087  1.2271  1.9970
 3111TIP3   OH224999   3.257   0.338   6.675  0.2571  0.1395  0.6212
 3111TIP3    H125000   3.181   0.388   6.704 -1.3304  0.1860 -3.1252
 3111TIP3    H225001   3.318   0.404   6.642  0.2140 -0.1185  0.0218
 3112TIP3   OH225002   0.136   3.669   0.869  0.3408 -0.5293 -0.0001
 3112TIP3    H125003   0.161   3.599   0.808  3.5081  1.1735 -0.8680
 3112TIP3    H225004   0.176   3.747   0.832 -1.6295  1.4764  1.8538
 3113TIP3   OH225005   1.943   0.366   2.046  0.0173 -0.4148 -0.0817
 3113TIP3    H125006   1.901   0.433   2.100  2.3992  1.5174 -0.4799
 3113TIP3    H225007   1.972   0.413   1.968  0.4636 -2.2575 -1.0838
 3114TIP3   OH225008   2.551   3.939   0.215 -0.0238 -0.2257  0.4596
 3114TIP3    H125009   2.611   3.874   0.180  0.0933  0.4267 -0.6103
 3114TIP3    H225010   2.606   3.996   0.268  0.1078 -0.2585  0.3599
 3115TIP3   OH225011   3.328   3.093   6.875 -0.2839 -0.2143 -0.5559
 3115TIP3    H125012   3.267   3.123   6.942 -1.6663 -0.5987 -1.6077
 3115TIP3    H225013   3.373   3.173   6.847 -2.2302  0.5617 -1.6330
 3116TIP3   OH225014   2.741   1.546   2.280 -0.3756  0.1122 -0.0555
 3116TIP3    H125015   2.786   1.494   2.346  0.3319  0.4568 -0.2619
 3116TIP3    H225016   2.806   1.560   2.212 -0.8831  0.3702 -0.4970
 3117TIP3   OH225017   2.961   1.537   0.208 -0.4410  0.1804 -0.2227
 3117TIP3    H125018   2.903   1.601   0.250 -1.4795 -0.4902 -0.6005
 3117TIP3    H225019   2.963   1.564   0.116 -1.2247 -0.5626 -0.4674
 3118TIP3   OH225020   1.490   1.130   1.132 -0.1216  0.0765 -0.1154
 3118TIP3    H125021   1.456   1.174   1.053  0.4084 -0.8796 -0.9010
 3118TIP3    H225022   1.477   1.037   1.115 -2.4823 -0.1120  2.1029
 3119TIP3   OH225023   5.084   0.652   2.193  0.7559 -0.2023  0.4983
 3119TIP3    H125024   5.145   0.722   2.217 -0.3141  1.1102 -0.4316
 3119TIP3    H225025   5.041   0.685   2.114 -2.6400 -0.1329  2.2375
 3120TIP3   OH225026   1.093   0.308   2.860 -0.3753 -0.0120  0.3196
 3120TIP3    H125027   1.067   0.217   2.869 -0.1893 -0.1640 -0.5848
 3120TIP3    H225028   1.010   0.357   2.857 -0.5177 -0.2749 -0.3431
 3121TIP3   OH225029   0.454   3.136   1.211 -0.1115  0.2438  0.1574
 3121TIP3    H125030   0.449   3.232   1.212 -0.1058  0.2716 -0.8941
 3121TIP3    H225031   0.507   3.116   1.133  1.4764 -0.5741  1.3954
 3122TIP3   OH225032   5.509   1.902   2.073  0.8077  0.2052 -0.0207
 3122TIP3    H125033   5.501   1.961   2.148  3.0618 -1.3832  1.5984
 3122TIP3    H225034   5.442   1.834   2.088  0.0126  0.8674 -0.4783
 3123TIP3   OH225035   5.312   3.998   0.783  0.1275 -0.1825 -0.3748
 3123TIP3    H125036   5.233   3.963   0.824 -0.4661  0.2964 -1.0956
 3123TIP3    H225037   5.379   3.931   0.798  0.3069  0.5145  2.5534
 3124TIP3   OH225038   2.095   1.482   2.036  0.3871  0.3832  0.3843
 3124TIP3    H125039   2.185   1.465   2.007 -0.1380  1.3162 -1.9743
 3124TIP3    H225040   2.041   1.467   1.958 -1.5581 -0.3477  1.7925
 3125TIP3   OH225041   2.571   4.119   1.320  0.4178 -0.1777 -0.0646
 3125TIP3    H125042   2.541   4.031   1.342 -1.0622  0.0737 -0.9730
 3125TIP3    H225043   2.497   4.176   1.341  0.9793  0.7206 -0.4571
 3126TIP3   OH225044   3.323   2.500   1.418 -0.5985 -0.3972  0.6556
 3126TIP3    H125045   3.257   2.431   1.412  0.7748 -1.7932  0.7937
 3126TIP3    H225046   3.320   2.530   1.508 -0.3375 -1.2205  0.9476
 3127TIP3   OH225047   1.140   2.723   7.570 -0.0270 -0.4665  0.1429
 3127TIP3    H125048   1.090   2.675   7.636  1.3402 -1.4363  0.5040
 3127TIP3    H225049   1.232   2.709   7.594  0.4544  0.6123 -0.9608
 3128TIP3   OH225050   0.401   2.275   7.709  0.3570 -0.3294  0.0327
 3128TIP3    H125051   0.371   2.311   7.626  1.5085 -1.4373 -0.8989
 3128TIP3    H225052   0.385   2.345   7.772 -2.2913 -0.1395 -0.7205
 3129TIP3   OH225053   1.557   5.119   6.218  0.3610  0.6707 -0.2802
 3129TIP3    H125054   1.477   5.148   6.175  0.7397 -0.1459 -1.5870
 3129TIP3    H225055   1.572   5.031   6.184  0.3977 -0.2585  1.9674
 3130TIP3   OH225056   2.212   3.871   6.667 -0.1733 -0.1997  0.1206
 3130TIP3    H125057   2.197   3.955   6.710 -0.6775 -1.1119  1.8095
 3130TIP3    H225058   2.295   3.883   6.620 -1.1085  1.7741 -1.1826
 3131TIP3   OH225059   3.540   0.769   6.604 -0.2004  0.1260 -0.2823
 3131TIP3    H125060   3.596   0.813   6.669 -0.6603  0.9869 -0.4661
 3131TIP3    H225061   3.467   0.829   6.590 -0.6959 -0.5748 -0.7502
 3132TIP3   OH225062   1.490   3.895   0.593 -0.9296  0.2488 -0.4462
 3132TIP3    H125063   1.414   3.886   0.650 -0.0088 -0.6933  0.7119
 3132TIP3    H225064   1.532   3.808   0.595  1.2899  1.2558  0.6425
 3133TIP3   OH225065   3.726   1.604   6.020  0.1699  0.7283 -0.3767
 3133TIP3    H125066   3.650   1.652   6.055 -1.1754 -2.3572  1.3606
 3133TIP3    H225067   3.771   1.571   6.098  1.1521 -0.5555 -1.4462
 3134TIP3   OH225068   6.295   3.573   1.167 -0.0129 -0.3467 -0.2576
 3134TIP3    H125069   6.294   3.657   1.120  1.4785  0.1020  0.4516
 3134TIP3    H225070   6.291   3.507   1.099  2.8761  0.2733 -1.1380
 3135TIP3   OH225071   2.290   2.708   7.492 -0.4083 -0.0182 -0.9469
 3135TIP3    H125072   2.195   2.710   7.477 -0.5494 -1.0585 -0.2649
 3135TIP3    H225073   2.326   2.670   7.412 -0.5058  0.8656 -1.4230
 3136TIP3   OH225074   2.555   1.391   0.450  0.7077 -0.2780 -0.2243
 3136TIP3    H125075   2.459   1.387   0.449  0.7263 -1.6833 -2.3160
 3136TIP3    H225076   2.581   1.319   0.508  0.5019  0.0057  0.2225
 3137TIP3   OH225077   4.452   5.271   6.502  0.1628 -0.4648  0.3905
 3137TIP3    H125078   4.465   5.198   6.562 -0.9584  0.3279  1.6644
 3137TIP3    H225079   4.480   5.348   6.552  0.0034  0.1269 -0.4176
 3138TIP3   OH225080   2.997   2.271   0.123 -0.0992  0.3927 -0.0999
 3138TIP3    H125081   2.975   2.180   0.142  2.3698 -0.2188  0.1603
 3138TIP3    H225082   2.995   2.316   0.208  1.3400 -0.0902  0.2196
 3139TIP3   OH225083   5.969   4.627   1.825 -0.2522 -0.3400 -0.2261
 3139TIP3    H125084   5.932   4.655   1.909  1.1501 -0.9040  0.6076
 3139TIP3    H225085   5.895   4.591   1.777 -0.7015 -2.1675  1.6897
 3140TIP3   OH225086   5.308   2.541   6.314  0.0107  0.5133 -0.0096
 3140TIP3    H125087   5.388   2.572   6.272  0.1268 -0.8253 -0.8548
 3140TIP3    H225088   5.334   2.519   6.403  0.5331  0.3271 -0.2052
 3141TIP3   OH225089   1.703   3.296   7.597 -0.1835  0.4475 -0.6339
 3141TIP3    H125090   1.609   3.309   7.605 -0.2412 -0.2067 -0.1411
 3141TIP3    H225091   1.736   3.308   7.686  0.3913  2.0416 -1.0277
 3142TIP3   OH225092   1.274   0.303   0.909  0.0832 -0.0207 -0.1058
 3142TIP3    H125093   1.182   0.292   0.886 -0.2735 -0.4863  1.4519
 3142TIP3    H225094   1.286   0.252   0.989  1.4795  0.7247  0.2060
 3143TIP3   OH225095   0.923   0.811   6.277  0.0379 -0.8320  0.0981
 3143TIP3    H125096   0.965   0.763   6.205 -0.4503  0.6681 -1.2400
 3143TIP3    H225097   0.993   0.866   6.313 -0.3015  0.3142 -0.9386
 3144TIP3   OH225098   6.131   0.711   1.873  0.2423  0.2025  0.1681
 3144TIP3    H125099   6.181   0.772   1.927  1.0120 -1.9657  2.0736
 3144TIP3    H225100   6.179   0.709   1.789 -0.0394  2.4220 -0.1030
 3145TIP3   OH225101   0.541   0.345   7.699 -0.5256  0.7239 -0.3005
 3145TIP3    H125102   0.566   0.270   7.753 -1.4844  0.8097  0.3057
 3145TIP3    H225103   0.620   0.369   7.652  0.2862  0.4677  0.8790
 3146TIP3   OH225104   5.838   3.899   2.122 -0.0070  0.2888  0.4139
 3146TIP3    H125105   5.910   3.905   2.185 -0.0622  1.1319  0.4187
 3146TIP3    H225106   5.807   3.989   2.114 -1.1353 -0.0786  0.4962
 3147TIP3   OH225107   2.453   4.702   0.674 -0.2282 -0.0086 -0.2392
 3147TIP3    H125108   2.489   4.779   0.628 -1.7070  0.6943 -0.2902
 3147TIP3    H225109   2.480   4.628   0.620 -2.5853  0.8323 -2.8687
 3148TIP3   OH225110   0.133   0.482   2.228 -0.0979  0.2132 -0.0720
 3148TIP3    H125111   0.201   0.525   2.281 -1.0840  1.4006  0.2654
 3148TIP3    H225112   0.098   0.551   2.172  0.0978 -0.7625 -1.4480
 3149TIP3   OH225113   6.275   4.839   0.848 -0.3027  0.0034 -0.0235
 3149TIP3    H125114   6.255   4.932   0.858  0.2358  0.1471 -0.2375
 3149TIP3    H225115   6.284   4.807   0.937  1.6640  0.6458  0.0696
 3150TIP3   OH225116   1.242   1.670   7.260  0.7134 -0.1485  0.1112
 3150TIP3    H125117   1.198   1.586   7.248  1.4048 -0.8100  1.9334
 3150TIP3    H225118   1.172   1.731   7.283  0.5388 -0.8974  1.6773
 3151TIP3   OH225119   0.553   2.743   0.220 -0.0280  0.4371 -0.1739
 3151TIP3    H125120   0.595   2.825   0.246 -0.4663  1.4826 -2.5456
 3151TIP3    H225121   0.573   2.734   0.127 -1.2610 -1.3818 -0.3064
 3152TIP3   OH225122   6.282   3.304   1.075  0.2467  0.2525  0.3818
 3152TIP3    H125123   6.276   3.210   1.058 -2.2284  0.3789  0.1387
 3152TIP3    H225124   6.350   3.312   1.142  1.8720 -1.4704 -0.9630
 3153TIP3   OH225125   4.677   1.794   6.345  0.0439  0.0323  0.1821
 3153TIP3    H125126   4.688   1.880   6.306  0.1677  0.5722  1.3627
 3153TIP3    H225127   4.605   1.754   6.296  0.0914  0.7346 -0.4717
 3154TIP3   OH225128   4.020   0.688   0.214  0.3522 -0.8183 -0.0725
 3154TIP3    H125129   3.968   0.630   0.157 -0.0302 -1.4586  0.8914
 3154TIP3    H225130   4.048   0.631   0.286 -0.8916  0.3955  1.4501
 3155TIP3   OH225131   5.444   0.485   1.604  0.5483 -0.2216  0.3154
 3155TIP3    H125132   5.530   0.475   1.644  0.5723  2.4744  1.0807
 3155TIP3    H225133   5.382   0.471   1.676  0.5241  2.0436  0.8033
 3156TIP3   OH225134   2.359   2.170   0.408 -0.2869 -0.4988  0.4165
 3156TIP3    H125135   2.265   2.184   0.420 -0.2079  0.4127  0.0213
 3156TIP3    H225136   2.367   2.136   0.318 -0.2164 -0.3238  0.3564
 3157TIP3   OH225137   2.713   1.593   0.542  0.7488  0.3774  0.2048
 3157TIP3    H125138   2.722   1.558   0.630 -1.3799 -0.0751  0.3082
 3157TIP3    H225139   2.650   1.534   0.499  3.1236 -0.5829 -2.2861
 3158TIP3   OH225140   3.761   1.866   6.217 -0.2118 -0.3344 -0.1118
 3158TIP3    H125141   3.785   1.774   6.215 -0.7673 -0.6067  2.3728
 3158TIP3    H225142   3.844   1.913   6.226  0.0301 -0.6142 -0.8448
 3159TIP3   OH225143   6.014   4.613   1.448  0.0465  0.0114 -0.0476
 3159TIP3    H125144   5.951   4.683   1.469 -0.9506 -0.9384  0.2185
 3159TIP3    H225145   5.960   4.544   1.409  0.9034 -0.9165  0.3930
 3160TIP3   OH225146   3.399   0.561   1.971 -0.0453 -0.2399 -0.3364
 3160TIP3    H125147   3.483   0.581   1.930  0.6771 -0.5564  0.9142
 3160TIP3    H225148   3.362   0.646   1.993  0.8410 -0.1055  0.7648
 3161TIP3   OH225149   2.435   0.053   1.966  0.1902  0.2178  0.4925
 3161TIP3    H125150   2.459   0.125   2.024  0.6452 -2.3879  3.8472
 3161TIP3    H225151   2.518   0.016   1.936  0.0482 -0.3346  0.7579
 3162TIP3   OH225152   2.678   5.859   7.736 -0.4786 -0.1468 -0.0294
 3162TIP3    H125153   2.659   5.939   7.786 -0.2335 -0.0095 -0.1497
 3162TIP3    H225154   2.753   5.883   7.681  0.8335 -1.0023  1.2875
 3163TIP3   OH225155   1.006   0.701   0.963  0.2238 -0.1680  0.5001
 3163TIP3    H125156   1.058   0.712   1.042  1.4699 -1.5705 -0.0828
 3163TIP3    H225157   1.070   0.688   0.893 -0.8713 -0.0913 -0.5603
 3164TIP3   OH225158   2.509   4.888   6.503 -0.1424 -0.4997 -0.5515
 3164TIP3    H125159   2.588   4.941   6.515  0.0217 -1.0238  0.7775
 3164TIP3    H225160   2.534   4.823   6.436  0.5047 -0.5618 -0.2551
 3165TIP3   OH225161   1.076   1.516   1.172  0.2313  0.2919 -0.3711
 3165TIP3    H125162   1.019   1.581   1.212 -0.1432 -1.3335  1.9039
 3165TIP3    H225163   1.140   1.568   1.122 -2.4215  2.2016 -2.0651
 3166TIP3   OH225164   1.806   0.775   1.021 -0.3031  0.9692 -0.4262
 3166TIP3    H125165   1.790   0.800   1.112  0.3386  2.1813 -0.6310
 3166TIP3    H225166   1.760   0.692   1.011  1.0750 -0.1112  1.5147
 3167TIP3   OH225167   4.084   3.871   0.392  0.0757  0.4615  0.4360
 3167TIP3    H125168   4.139   3.945   0.367  0.7228  0.1058  0.7673
 3167TIP3    H225169   4.138   3.794   0.374 -0.4308  0.0891  0.4817
 3168TIP3   OH225170   2.418   0.717   7.258 -0.1074 -0.1704  0.2077
 3168TIP3    H125171   2.477   0.655   7.300  0.3596  0.3493  0.3312
 3168TIP3    H225172   2.339   0.667   7.240  1.2119 -1.5857 -2.1528
 3169TIP3   OH225173   0.842   4.967   1.644  0.1027 -0.3934 -0.0334
 3169TIP3    H125174   0.841   4.912   1.723 -0.3111 -0.8679 -0.3647
 3169TIP3    H225175   0.920   5.022   1.654  0.2563 -0.7075  0.5301
 3170TIP3   OH225176   3.025   2.469   0.708  0.2180  0.2746 -0.8303
 3170TIP3    H125177   2.933   2.496   0.713 -0.1027 -0.9366  2.3944
 3170TIP3    H225178   3.069   2.544   0.668 -1.6242  2.7009  1.3121
 3171TIP3   OH225179   2.176   6.116   0.761  0.2130 -0.2735  0.5289
 3171TIP3    H125180   2.259   6.153   0.792  0.4887  1.4268 -1.9441
 3171TIP3    H225181   2.190   6.022   0.761  2.4166 -0.0058 -0.4155
 3172TIP3   OH225182   5.516   1.742   1.839  0.4516  0.2310  0.0596
 3172TIP3    H125183   5.489   1.790   1.760  2.3638  0.7057 -0.3656
 3172TIP3    H225184   5.528   1.810   1.905 -0.2779 -0.0732  0.5165
 3173TIP3   OH225185   3.115   2.151   2.250  0.5190 -0.0459 -0.4856
 3173TIP3    H125186   3.060   2.185   2.179  1.2477 -0.2881 -1.1746
 3173TIP3    H225187   3.204   2.177   2.226  0.9188 -1.1757 -0.2812
 3174TIP3   OH225188   1.449   3.429   1.758 -0.1565  0.1960  0.2133
 3174TIP3    H125189   1.473   3.522   1.758 -0.5006  0.2917  0.7649
 3174TIP3    H225190   1.509   3.388   1.696  0.8430  0.5748  0.9081
 3175TIP3   OH225191   1.278   5.715   0.771  0.2250  0.8017 -0.8021
 3175TIP3    H125192   1.285   5.623   0.799 -0.2862  0.3840 -1.9745
 3175TIP3    H225193   1.243   5.761   0.847 -1.4100 -0.3479 -0.7998
 3176TIP3   OH225194   3.898   2.557   2.378  0.1326  0.1408  0.2632
 3176TIP3    H125195   3.908   2.465   2.354 -0.3523  0.3031 -0.6210
 3176TIP3    H225196   3.858   2.556   2.465  0.5826 -0.4750  0.4683
 3177TIP3   OH225197   3.101   4.658   1.776 -0.9724  0.2590 -0.1678
 3177TIP3    H125198   3.058   4.714   1.840 -2.6401 -0.6033 -0.4726
 3177TIP3    H225199   3.102   4.572   1.818  0.2496  0.2056 -0.2831
 3178TIP3   OH225200   4.472   1.234   1.013  0.0604 -0.2451 -0.1386
 3178TIP3    H125201   4.467   1.138   1.010  0.1983 -0.4374  2.6393
 3178TIP3    H225202   4.399   1.264   0.960 -0.6277 -1.9271 -0.2092
 3179TIP3   OH225203   0.608   5.489   2.024 -0.3295 -0.7871 -0.2690
 3179TIP3    H125204   0.688   5.465   2.071  0.1732  0.1529 -0.6009
 3179TIP3    H225205   0.542   5.498   2.092 -0.5672 -3.0424 -0.1291
 3180TIP3   OH225206   0.824   1.483   2.030 -0.4196  0.1157  0.3907
 3180TIP3    H125207   0.773   1.471   2.110 -1.0041  2.3596  0.4151
 3180TIP3    H225208   0.820   1.577   2.012  0.0584 -0.2494 -2.0447
 3181TIP3   OH225209   0.535   0.594   1.071  0.5456 -0.2431 -0.2511
 3181TIP3    H125210   0.541   0.624   1.162  0.7422 -1.2064  0.0604
 3181TIP3    H225211   0.609   0.533   1.061  0.1517 -0.6234 -0.8703
 3182TIP3   OH225212   4.443   5.897   2.418 -0.7043  0.3012  0.5184
 3182TIP3    H125213   4.447   5.808   2.383 -0.5775  1.2743 -2.1625
 3182TIP3    H225214   4.373   5.939   2.368  1.1467  2.5016 -0.3986
 3183TIP3   OH225215   5.450   3.375   0.625 -0.3051 -0.0583 -0.6643
 3183TIP3    H125216   5.526   3.433   0.634 -1.2070  0.9599  0.8342
 3183TIP3    H225217   5.398   3.415   0.556 -0.4875  0.4209 -0.2532
 3184TIP3   OH225218   4.118   1.630   7.502 -0.3980  0.2890  0.1908
 3184TIP3    H125219   4.073   1.666   7.578 -0.7377 -0.2725  0.2646
 3184TIP3    H225220   4.094   1.537   7.502  1.3887 -0.2092  0.6929
 3185TIP3   OH225221   0.600   4.404   0.934 -0.1169 -0.5041 -0.6184
 3185TIP3    H125222   0.623   4.342   1.002 -0.3187 -1.4883 -1.4169
 3185TIP3    H225223   0.654   4.481   0.952  0.7904 -1.2402 -0.1127
 3186TIP3   OH225224   4.013   5.373   1.307 -0.0918  0.1153 -0.0619
 3186TIP3    H125225   4.006   5.330   1.222 -0.3663 -0.1013  0.0704
 3186TIP3    H225226   4.041   5.304   1.367 -0.5857  0.1067  0.1605
 3187TIP3   OH225227   1.447   0.791   6.444 -0.2667 -0.4273  0.4166
 3187TIP3    H125228   1.454   0.880   6.408  0.7222 -0.3149  0.8521
 3187TIP3    H225229   1.448   0.734   6.368  0.6567 -0.1332  0.1938
 3188TIP3   OH225230   5.602   4.415   6.047 -0.4786  0.0761  0.4833
 3188TIP3    H125231   5.518   4.416   6.002  0.6604 -3.1294 -2.0803
 3188TIP3    H225232   5.654   4.482   6.002 -0.3443 -0.9421 -0.9299
 3189TIP3   OH225233   4.064   4.630   6.319  0.3736 -0.2156  0.1302
 3189TIP3    H125234   4.100   4.704   6.271  1.6704 -2.5160 -2.7746
 3189TIP3    H225235   4.123   4.619   6.394  0.0208  1.7292  0.7474
 3190TIP3   OH225236   0.282   6.249   7.564  0.2946  0.2310  0.3887
 3190TIP3    H125237   0.258   6.202   7.484 -1.0700  1.8978 -0.2391
 3190TIP3    H225238   0.350   6.310   7.538  0.3082  0.3258  0.6378
 3191TIP3   OH225239   3.853   0.484   1.406 -0.1645 -0.4852 -0.6730
 3191TIP3    H125240   3.862   0.398   1.367  0.1812 -0.2795 -1.0547
 3191TIP3    H225241   3.880   0.473   1.497 -0.8688 -0.9450 -0.5096
 3192TIP3   OH225242   6.080   2.067   1.223 -0.6074 -0.1077  0.0803
 3192TIP3    H125243   6.035   2.033   1.145 -0.1873 -1.2038  0.2951
 3192TIP3    H225244   6.173   2.060   1.201 -0.4920 -0.2165  0.5901
 3193TIP3   OH225245   5.634   2.524   2.229 -0.6109 -0.0793  0.1290
 3193TIP3    H125246   5.696   2.567   2.288  0.2138  1.0547 -1.4780
 3193TIP3    H225247   5.595   2.596   2.179 -1.3458 -0.9779 -0.6414
 3194TIP3   OH225248   3.236   3.685   1.039 -0.2053 -0.5465 -0.1033
 3194TIP3    H125249   3.274   3.710   0.955 -1.2676 -1.2065 -0.8082
 3194TIP3    H225250   3.143   3.705   1.030 -0.3012 -0.4251  1.0062
 3195TIP3   OH225251   6.088   5.734   7.483  0.0053  0.2667  0.4494
 3195TIP3    H125252   6.071   5.728   7.389  0.3197 -0.0222  0.4082
 3195TIP3    H225253   6.139   5.814   7.494  1.3377 -0.4990  0.1580
 3196TIP3   OH225254   3.235   3.141   0.125 -0.1850  0.2990 -1.1149
 3196TIP3    H125255   3.281   3.089   0.191 -0.1714  1.4487 -0.1766
 3196TIP3    H225256   3.154   3.093   0.109 -0.0335 -0.1797 -0.5046
 3197TIP3   OH225257   3.517   2.089   7.679 -0.2098  0.0981 -0.2846
 3197TIP3    H125258   3.510   2.183   7.694  0.4440 -0.0484  1.1336
 3197TIP3    H225259   3.600   2.079   7.631 -0.8410  0.3115 -1.4772
 3198TIP3   OH225260   0.618   6.228   7.559  0.7142  0.0807  0.0748
 3198TIP3    H125261   0.599   6.300   7.619  2.3913  1.7902 -1.2827
 3198TIP3    H225262   0.705   6.249   7.525  1.1964 -2.5544 -0.5011
 3199TIP3   OH225263   5.973   2.438   7.604  0.2662 -0.3457  0.5249
 3199TIP3    H125264   6.057   2.407   7.573  0.8314  0.9595  0.6768
 3199TIP3    H225265   5.963   2.399   7.691  0.0631 -1.5982 -0.0460
 3200TIP3   OH225266   4.291   6.043   0.854 -0.0505  0.6635 -0.2936
 3200TIP3    H125267   4.218   5.994   0.816  1.3184 -0.5690 -1.4578
 3200TIP3    H225268   4.361   6.038   0.788  1.5175  0.7139  1.2758
 3201TIP3   OH225269   1.785   6.181   6.386  0.1276  0.9067 -0.3800
 3201TIP3    H125270   1.847   6.196   6.315 -0.0918  0.0816 -0.7665
 3201TIP3    H225271   1.714   6.243   6.369  1.3268  2.6678  0.7128
 3202TIP3   OH225272   3.658   1.602   0.705 -0.8327 -0.3036  0.6808
 3202TIP3    H125273   3.628   1.536   0.768 -0.4097 -0.3162  0.8725
 3202TIP3    H225274   3.585   1.663   0.698 -1.4316 -1.0673  0.1100
 3203TIP3   OH225275   2.051   4.005   1.803  0.2067 -0.0411  0.8416
 3203TIP3    H125276   2.064   4.019   1.709 -0.4840 -0.3388  0.6898
 3203TIP3    H225277   1.979   4.063   1.826  0.0856 -0.2906  1.0946
 3204TIP3   OH225278   5.606   3.667   5.891  0.9859 -0.2804 -0.0785
 3204TIP3    H125279   5.628   3.745   5.840  0.9939 -0.6119 -0.5967
 3204TIP3    H225280   5.574   3.700   5.974  2.3549  0.2355  0.2616
 3205TIP3   OH225281   5.223   4.037   1.976 -0.0629 -0.1622  0.4911
 3205TIP3    H125282   5.150   4.032   2.039  0.5535 -0.4269  1.1908
 3205TIP3    H225283   5.274   4.112   2.005  0.4280 -0.5084  0.5192
 3206TIP3   OH225284   2.497   1.852   1.339 -0.6320  0.3974  0.1807
 3206TIP3    H125285   2.546   1.919   1.386 -0.2348 -0.4494  0.9904
 3206TIP3    H225286   2.520   1.865   1.247  0.7982  0.2835  0.5004
 3207TIP3   OH225287   0.279   3.663   0.544 -0.3494  0.3408  0.6381
 3207TIP3    H125288   0.191   3.626   0.552  0.5460 -1.6957  2.3285
 3207TIP3    H225289   0.283   3.730   0.613 -1.5654  2.8827 -1.6070
 3208TIP3   OH225290   2.669   6.112   0.619  0.1163  0.2239 -0.1176
 3208TIP3    H125291   2.732   6.184   0.620 -0.0017  0.3395 -0.7501
 3208TIP3    H225292   2.697   6.056   0.547 -0.2032 -0.0010 -0.0699
 3209TIP3   OH225293   0.197   2.757   7.319 -0.1867 -0.1863 -0.0519
 3209TIP3    H125294   0.277   2.706   7.322 -0.6470 -0.8902  0.3131
 3209TIP3    H225295   0.225   2.847   7.339  0.6015 -0.3031 -0.5949
 3210TIP3   OH225296   4.818   3.489   1.553  0.1411  0.1422 -0.1147
 3210TIP3    H125297   4.729   3.453   1.555 -0.5244  1.7280  0.9188
 3210TIP3    H225298   4.873   3.420   1.588 -0.4730 -1.3203 -1.8708
 3211TIP3   OH225299   0.165   1.753   1.831 -0.3538 -0.0029 -0.4383
 3211TIP3    H125300   0.238   1.746   1.892 -0.7781 -0.9350 -0.0215
 3211TIP3    H225301   0.088   1.769   1.886 -0.4420  1.2500 -0.8931
 3212TIP3   OH225302   6.088   2.815   0.977  0.1861 -0.2045 -0.2232
 3212TIP3    H125303   6.159   2.753   0.992  1.7432  1.2555 -1.2170
 3212TIP3    H225304   6.009   2.769   1.005  1.3462 -2.3832 -0.3513
 3213TIP3   OH225305   2.577   2.316   0.146  0.3738  0.4858 -0.0031
 3213TIP3    H125306   2.537   2.391   0.190  0.6582  0.8958 -0.4329
 3213TIP3    H225307   2.659   2.350   0.110  1.0547 -0.3035  0.7414
 3214TIP3   OH225308   3.874   0.649   0.621  0.4703 -0.2171  0.3003
 3214TIP3    H125309   3.836   0.723   0.573  0.7137  0.1454  0.6636
 3214TIP3    H225310   3.880   0.680   0.712 -1.2149 -1.3488  0.8490
 3215TIP3   OH225311   6.066   2.440   1.677  0.4758  0.7112 -0.1663
 3215TIP3    H125312   6.118   2.363   1.654 -0.2650  0.4452 -0.9948
 3215TIP3    H225313   5.977   2.406   1.690  0.4552  1.1818  1.0695
 3216TIP3   OH225314   0.633   2.021   6.903  0.2503 -0.3893  0.0737
 3216TIP3    H125315   0.571   1.956   6.871  0.0633 -0.8903  1.3808
 3216TIP3    H225316   0.603   2.104   6.866 -0.1616 -0.8794 -0.7119
 3217TIP3   OH225317   2.652   2.520   1.043  0.0538  0.5794  0.1079
 3217TIP3    H125318   2.609   2.603   1.060  0.5354  0.7861  0.3426
 3217TIP3    H225319   2.744   2.536   1.063  0.5430  0.6322 -2.0460
 3218TIP3   OH225320   1.882   3.508   1.318  0.5140 -0.2429  0.4025
 3218TIP3    H125321   1.878   3.477   1.227  0.9295 -0.5379  0.4809
 3218TIP3    H225322   1.792   3.531   1.339 -0.1645 -2.9772  0.8867
 3219TIP3   OH225323   2.441   5.390   0.823 -0.3899 -0.0616 -0.0565
 3219TIP3    H125324   2.449   5.316   0.884 -1.8322  0.5788  0.9603
 3219TIP3    H225325   2.368   5.367   0.766 -0.3167  0.2240 -0.2695
 3220TIP3   OH225326   0.060   4.000   0.893  0.2742 -0.4580 -0.0487
 3220TIP3    H125327   0.114   3.947   0.834  2.0089 -1.1176  2.0034
 3220TIP3    H225328   0.120   4.066   0.928  0.0210 -1.5864  2.7762
 3221TIP3   OH225329   0.010   1.450   0.659  0.2598 -0.1209  0.2980
 3221TIP3    H125330   0.059   1.409   0.731 -1.5303 -1.0076  1.0697
 3221TIP3    H225331   0.028   1.393   0.584  0.8452 -0.1284  0.4394
 3222TIP3   OH225332   1.542   4.980   0.241  0.2642 -0.1507 -0.1663
 3222TIP3    H125333   1.464   5.031   0.218  0.8169  1.4107  1.2742
 3222TIP3    H225334   1.572   4.944   0.157 -0.3522  1.6009 -1.1941
 3223TIP3   OH225335   1.534   4.636   0.937  0.5638  0.3457  0.0388
 3223TIP3    H125336   1.567   4.602   0.854  0.0061  1.2066 -0.5475
 3223TIP3    H225337   1.440   4.620   0.933  0.4045  1.2472  0.0858
 3224TIP3   OH225338   3.359   1.691   2.533 -0.0289 -0.1987 -0.1666
 3224TIP3    H125339   3.349   1.596   2.532  0.4027 -0.2503  0.1358
 3224TIP3    H225340   3.385   1.713   2.444 -0.3423 -0.3373 -0.2955
 3225TIP3   OH225341   6.124   3.626   0.889 -0.3907  0.0622 -0.0053
 3225TIP3    H125342   6.207   3.664   0.917  0.1631 -0.9358 -0.2743
 3225TIP3    H225343   6.106   3.558   0.954 -1.0313  0.3042  0.0803
 3226TIP3   OH225344   4.720   3.305   5.825 -0.1417 -0.2864 -0.7608
 3226TIP3    H125345   4.762   3.368   5.767  0.2717 -0.3712 -0.5545
 3226TIP3    H225346   4.626   3.320   5.813 -0.0491  0.9728 -0.0488
 3227TIP3   OH225347   2.087   0.067   0.674 -0.3422 -0.1729 -0.0975
 3227TIP3    H125348   2.115  -0.019   0.705 -0.2886  0.3045  1.2311
 3227TIP3    H225349   2.006   0.049   0.626 -0.2107 -0.9912 -0.0275
 3228TIP3   OH225350   5.456   2.577   1.468 -0.3686 -0.8116 -0.4534
 3228TIP3    H125351   5.478   2.660   1.510 -1.2211 -1.5870  1.6862
 3228TIP3    H225352   5.379   2.596   1.415  0.5818  0.1410 -1.5476
 3229TIP3   OH225353   1.864   2.308   2.578  0.2981 -0.1795  0.3584
 3229TIP3    H125354   1.833   2.345   2.661 -1.6241 -0.5266 -0.1445
 3229TIP3    H225355   1.955   2.336   2.571  0.0490  1.1381  1.8548
 3230TIP3   OH225356   4.793   1.367   1.205 -0.2666  0.0922 -0.4702
 3230TIP3    H125357   4.784   1.353   1.299  2.3917  2.4227  0.2676
 3230TIP3    H225358   4.887   1.373   1.190 -0.6092  0.0149 -3.2668
 3231TIP3   OH225359   2.484   1.914   6.496  0.0548  0.0855  0.3278
 3231TIP3    H125360   2.479   1.820   6.478 -1.2908  0.2186 -0.0370
 3231TIP3    H225361   2.470   1.956   6.411 -1.5216  0.6445  0.8438
 3232TIP3   OH225362   2.903   1.346   7.002 -0.7537 -0.1820 -0.2311
 3232TIP3    H125363   2.900   1.441   6.992  0.9552 -0.1268 -0.5451
 3232TIP3    H225364   2.945   1.315   6.922  2.7461 -0.7729  1.6611
 3233TIP3   OH225365   0.136   1.735   6.344  0.3712  0.1293 -0.3094
 3233TIP3    H125366   0.068   1.721   6.410  0.3740  1.9765  0.1380
 3233TIP3    H225367   0.112   1.675   6.273  0.7504 -2.4387  1.5479
 3234TIP3   OH225368   1.603   5.260   1.429  0.3329 -0.1901 -0.0534
 3234TIP3    H125369   1.601   5.324   1.499 -0.8144  1.6778 -1.6909
 3234TIP3    H225370   1.511   5.240   1.412  0.5616 -0.2392 -1.3169
 3235TIP3   OH225371   5.552   1.703   1.175  0.5672  0.2308 -0.0098
 3235TIP3    H125372   5.502   1.772   1.131  1.7537  1.9286  1.1685
 3235TIP3    H225373   5.531   1.713   1.268  0.2873 -1.4324  0.1427
 3236TIP3   OH225374   2.830   1.818   2.735  0.1568  0.2302 -0.0883
 3236TIP3    H125375   2.860   1.829   2.825 -0.6973  0.4344  0.1813
 3236TIP3    H225376   2.906   1.784   2.689  0.7383  0.5423  0.6111
 3237TIP3   OH225377   1.489   4.173   6.160  0.2808  0.6776 -0.6757
 3237TIP3    H125378   1.402   4.173   6.200  1.4721  1.6000  2.1538
 3237TIP3    H225379   1.498   4.261   6.123 -0.0261  0.5374 -1.0894
 3238TIP3   OH225380   2.349   2.140   7.174 -0.1451 -0.1318  0.2863
 3238TIP3    H125381   2.372   2.086   7.250  1.2573  1.2693  0.9225
 3238TIP3    H225382   2.294   2.209   7.210 -0.8710 -0.3988 -0.2923
 3239TIP3   OH225383   4.732   3.737   1.527  0.3372 -0.4730  0.1020
 3239TIP3    H125384   4.730   3.750   1.433 -0.8757 -0.7555  0.0745
 3239TIP3    H225385   4.782   3.656   1.539  1.1246 -0.0524 -0.2300
 3240TIP3   OH225386   3.690   1.095   1.701  0.3920 -0.2189  0.1318
 3240TIP3    H125387   3.612   1.126   1.745  0.6087 -0.4216  0.6689
 3240TIP3    H225388   3.676   1.001   1.691 -1.2058  0.2211 -3.3645
 3241TIP3   OH225389   4.763   1.108   5.715  0.4162 -0.0962 -0.0926
 3241TIP3    H125390   4.763   1.133   5.622 -1.0030  1.3978  0.2783
 3241TIP3    H225391   4.834   1.160   5.753 -2.0184  3.0442  0.5191
 3242TIP3   OH225392   0.574   5.333   2.537 -0.5281 -0.5611 -0.2598
 3242TIP3    H125393   0.558   5.309   2.628  1.6095 -2.4312 -0.2959
 3242TIP3    H225394   0.600   5.426   2.541  0.0092 -0.7522  1.1093
 3243TIP3   OH225395   0.413   5.785   0.608 -0.4560  0.1094 -0.2819
 3243TIP3    H125396   0.374   5.713   0.559  0.2273 -1.2900  1.1340
 3243TIP3    H225397   0.487   5.745   0.654  0.2404  1.8344  0.1619
 3244TIP3   OH225398   0.406   3.205   2.397 -0.1359  0.0032 -0.7639
 3244TIP3    H125399   0.391   3.155   2.316 -0.7608  1.0476 -1.3169
 3244TIP3    H225400   0.331   3.263   2.403 -0.3183 -0.3778  0.8316
 3245TIP3   OH225401   0.011   2.030   6.653 -0.3003 -0.2577  0.5884
 3245TIP3    H125402  -0.062   2.052   6.595 -1.5806 -1.0145  1.8524
 3245TIP3    H225403  -0.013   2.068   6.738  1.2959  0.4089  0.7726
 3246TIP3   OH225404   1.272   1.342   6.390  0.0561  1.1953 -0.5624
 3246TIP3    H125405   1.278   1.257   6.347  1.1712  1.0158 -0.0903
 3246TIP3    H225406   1.195   1.384   6.351 -0.0969  0.2511 -1.2959
 3247TIP3   OH225407   0.317   2.658   6.893  0.6569 -0.1217 -0.4287
 3247TIP3    H125408   0.374   2.699   6.828  0.8871 -1.5359 -1.1549
 3247TIP3    H225409   0.376   2.613   6.953  0.3959  0.2143  0.0823
 3248TIP3   OH225410   4.864   4.502   7.318 -0.5220  0.0572  0.2169
 3248TIP3    H125411   4.857   4.473   7.227  0.3888  2.6979 -0.7792
 3248TIP3    H225412   4.912   4.585   7.313  1.2892 -0.6430  3.2892
 3249TIP3   OH225413   4.092   0.563   0.450 -0.6786 -0.3789  0.2782
 3249TIP3    H125414   4.097   0.559   0.545  0.1697 -3.5549  0.2273
 3249TIP3    H225415   4.175   0.604   0.423 -0.5495 -0.2386  0.8754
 3250TIP3   OH225416   5.138   0.303   6.562 -0.1022 -0.0335 -0.4555
 3250TIP3    H125417   5.178   0.294   6.475  0.1261 -2.1854 -0.1896
 3250TIP3    H225418   5.101   0.391   6.562 -1.1264 -0.3540 -3.1844
 3251TIP3   OH225419   1.218   3.430   6.932  0.3368 -0.1971  0.7089
 3251TIP3    H125420   1.159   3.480   6.876  0.6807 -0.5416  0.0272
 3251TIP3    H225421   1.299   3.480   6.932 -0.1797  0.7245  2.3246
 3252TIP3   OH225422   6.147   4.392   6.812 -0.2947 -0.1183 -1.1147
 3252TIP3    H125423   6.186   4.412   6.727  1.1388 -1.6425 -0.8722
 3252TIP3    H225424   6.167   4.469   6.866  1.0752 -0.2034 -1.4575
 3253TIP3   OH225425   0.691   4.233   2.239 -0.4403  0.1035  0.2282
 3253TIP3    H125426   0.656   4.268   2.321  0.2852 -0.0929  0.6265
 3253TIP3    H225427   0.776   4.195   2.263 -0.3187 -0.1483 -0.5722
 3254TIP3   OH225428   0.811   3.225   1.170  0.4097  0.4341  0.3982
 3254TIP3    H125429   0.866   3.206   1.094 -0.1189  1.2518 -0.1964
 3254TIP3    H225430   0.807   3.320   1.174  0.7864  0.4123  1.7219
 3255TIP3   OH225431   1.416   2.895   0.045 -0.2895 -0.1456 -0.1897
 3255TIP3    H125432   1.367   2.843   0.109  1.0377 -0.7544  0.3822
 3255TIP3    H225433   1.449   2.830  -0.018 -0.1282  0.2277 -0.4959
 3256TIP3   OH225434   5.894   5.153   6.155  0.2000 -0.1348  0.3368
 3256TIP3    H125435   5.870   5.069   6.116  0.6537  0.3390 -1.0342
 3256TIP3    H225436   5.855   5.218   6.097 -0.3383  0.6280  1.5079
 3257TIP3   OH225437   4.945   5.449   7.495 -0.4615  0.3237  0.1000
 3257TIP3    H125438   4.948   5.377   7.431 -0.4466  1.3482 -1.0898
 3257TIP3    H225439   4.851   5.464   7.509 -0.4777  0.6060 -0.2878
 3258TIP3   OH225440   1.189   1.065   1.341  0.1393  0.4032 -0.3369
 3258TIP3    H125441   1.166   1.139   1.285  0.9526 -0.1119 -1.3904
 3258TIP3    H225442   1.252   1.100   1.403  0.0019  0.7445 -0.3892
 3259TIP3   OH225443   3.088   4.303   2.727  0.1117 -0.0540  0.0626
 3259TIP3    H125444   3.122   4.227   2.679  1.5316  0.4334  0.2341
 3259TIP3    H225445   3.016   4.269   2.779 -0.2934 -0.9620 -1.0454
 3260TIP3   OH225446   4.440   1.322   1.326  0.0136 -0.2290 -0.2493
 3260TIP3    H125447   4.469   1.376   1.253 -0.0549  0.0673 -0.0594
 3260TIP3    H225448   4.507   1.336   1.394  0.0011 -0.3908 -0.2034
 3261TIP3   OH225449   4.818   4.870   6.715 -0.0616 -0.3679 -0.1761
 3261TIP3    H125450   4.729   4.845   6.739 -1.2503  0.9177 -2.8792
 3261TIP3    H225451   4.821   4.965   6.726  1.7058 -0.5889  1.8632
 3262TIP3   OH225452   1.723   0.856   7.610 -0.2342  0.5365  0.2550
 3262TIP3    H125453   1.671   0.780   7.585  1.7728 -0.4302 -1.2841
 3262TIP3    H225454   1.786   0.867   7.538  1.6943  1.6093  1.9898
 3263TIP3   OH225455   4.461   0.652   7.394  0.0965 -0.3905 -0.8059
 3263TIP3    H125456   4.491   0.743   7.385 -0.4486  0.0979  1.6663
 3263TIP3    H225457   4.472   0.632   7.486  0.7764 -3.1103 -1.3996
 3264TIP3   OH225458   5.325   4.189   6.863  0.3287 -0.3005 -0.2925
 3264TIP3    H125459   5.293   4.145   6.785 -1.6154  1.6826 -0.7416
 3264TIP3    H225460   5.304   4.130   6.935 -0.4783 -0.9043 -1.0084
 3265TIP3   OH225461   4.761   3.585   6.673  0.1956  0.4091 -0.5066
 3265TIP3    H125462   4.767   3.498   6.714  1.9921  0.8228  0.2183
 3265TIP3    H225463   4.852   3.606   6.649 -0.2221  2.0381 -0.7578
 3266TIP3   OH225464   0.240   3.106   7.075  0.6195 -0.1814  0.2760
 3266TIP3    H125465   0.178   3.045   7.035 -1.3493  3.3672 -2.5803
 3266TIP3    H225466   0.318   3.100   7.020  0.9888 -1.0588  0.8691
 3267TIP3   OH225467   3.953   5.106   1.105  0.0726 -0.1701  0.0109
 3267TIP3    H125468   3.942   5.031   1.047 -0.2531 -1.0317  1.1685
 3267TIP3    H225469   3.992   5.174   1.049 -0.0104 -1.0522 -1.1456
 3268TIP3   OH225470   5.127   4.263   0.264  0.4424 -0.1099 -0.1682
 3268TIP3    H125471   5.153   4.237   0.352  0.4694 -2.3246 -0.7680
 3268TIP3    H225472   5.129   4.181   0.213 -4.6141 -0.0445 -1.0364
 3269TIP3   OH225473   3.590   4.550   0.979 -0.2242  0.0336  0.0092
 3269TIP3    H125474   3.622   4.468   1.016 -0.2226  0.6307  1.3948
 3269TIP3    H225475   3.534   4.586   1.048 -0.5732  0.9841 -0.7599
 3270TIP3   OH225476   5.427   5.373   0.297  0.2749  0.8230  0.0152
 3270TIP3    H125477   5.407   5.361   0.391  2.2878  1.3187  0.5428
 3270TIP3    H225478   5.383   5.454   0.273 -0.3646  0.6257  0.4835
 3271TIP3   OH225479   2.290   1.702   1.866 -0.9291 -0.5950 -0.1410
 3271TIP3    H125480   2.321   1.616   1.895  0.0271 -0.3704 -0.4801
 3271TIP3    H225481   2.291   1.697   1.771  2.8259  0.9947 -0.3594
 3272TIP3   OH225482   5.322   0.126   1.016 -0.2257 -0.1902  0.5982
 3272TIP3    H125483   5.227   0.142   1.014 -0.3690 -0.9867  0.4552
 3272TIP3    H225484   5.343   0.118   1.109 -0.1596  0.7384  0.6663
 3273TIP3   OH225485   3.461   3.321   6.716  0.4593 -0.3826  0.8165
 3273TIP3    H125486   3.518   3.379   6.767 -0.5395  0.2195  1.2930
 3273TIP3    H225487   3.521   3.262   6.670  1.5365  1.1653  0.1419
 3274TIP3   OH225488   5.358   0.704   6.080 -0.2731  0.2484 -0.2182
 3274TIP3    H125489   5.320   0.618   6.096 -0.7200 -0.3357 -3.6793
 3274TIP3    H225490   5.338   0.754   6.159 -2.6936 -1.9152  0.6771
 3275TIP3   OH225491   2.301   3.812   2.061  0.9023  0.0247  0.5264
 3275TIP3    H125492   2.331   3.869   1.991  1.3258  0.2863  0.9222
 3275TIP3    H225493   2.361   3.737   2.059  1.1545  0.2167  0.8623
 3276TIP3   OH225494   3.244   5.567   1.710  0.0589 -0.3721 -0.0638
 3276TIP3    H125495   3.338   5.555   1.695  0.7277  2.2557  1.4036
 3276TIP3    H225496   3.215   5.484   1.747  2.2685 -0.6054  1.3342
 3277TIP3   OH225497   1.882   2.566   0.856 -0.4184 -0.2354  0.1501
 3277TIP3    H125498   1.829   2.618   0.796 -0.1208 -1.2250 -1.0126
 3277TIP3    H225499   1.846   2.586   0.943 -0.0339  2.1960 -0.1937
 3278TIP3   OH225500   6.298   0.382   0.378 -0.3275  0.4478 -0.8342
 3278TIP3    H125501   6.284   0.452   0.441  0.1693 -0.0404 -0.1670
 3278TIP3    H225502   6.211   0.364   0.342 -0.3093  2.2034 -1.9083
 3279TIP3   OH225503   4.110   4.320   6.527 -0.0126  0.5240 -0.1693
 3279TIP3    H125504   4.023   4.283   6.542  0.5599 -0.5416  0.7033
 3279TIP3    H225505   4.106   4.407   6.566 -0.7127  0.5177 -0.2117
 3280TIP3   OH225506   1.534   4.798   1.485  0.2823  0.2191  0.1278
 3280TIP3    H125507   1.507   4.865   1.547  1.3875  0.9741 -0.1866
 3280TIP3    H225508   1.459   4.738   1.481 -0.3418  0.8951  1.1375
 3281TIP3   OH225509   2.563   5.813   1.035  0.3697  0.2554  0.0122
 3281TIP3    H125510   2.536   5.901   1.059 -1.6544  0.2380 -1.8679
 3281TIP3    H225511   2.604   5.822   0.950  2.4619 -0.3582  0.8828
 3282TIP3   OH225512   5.095   4.553   6.734  0.2248  0.0178  0.0677
 3282TIP3    H125513   5.175   4.520   6.774  1.1942  0.0035 -1.7767
 3282TIP3    H225514   5.066   4.483   6.676 -1.3202 -0.0920  0.9100
 3283TIP3   OH225515   6.278   5.076   6.548  0.1887 -0.4938  0.0023
 3283TIP3    H125516   6.310   5.165   6.562  1.4102 -0.7473 -1.0137
 3283TIP3    H225517   6.235   5.079   6.463 -0.3942 -0.7169  0.2861
 3284TIP3   OH225518   2.319   0.745   6.898  0.3268 -0.3235 -0.1608
 3284TIP3    H125519   2.284   0.775   6.982 -0.2624 -0.5535 -0.3210
 3284TIP3    H225520   2.408   0.781   6.895  0.5549 -0.7701  0.8059
 3285TIP3   OH225521   0.964   6.284   7.414  0.0299 -0.3165 -0.0856
 3285TIP3    H125522   0.979   6.372   7.448  1.3072  0.5642 -2.6755
 3285TIP3    H225523   0.887   6.294   7.358 -0.3171 -1.0568  0.2532
 3286TIP3   OH225524   1.495   6.067   7.557 -0.3244 -0.2058  0.4662
 3286TIP3    H125525   1.550   6.096   7.630 -0.5731  1.3470  0.0769
 3286TIP3    H225526   1.504   6.136   7.491 -0.9216 -1.0673 -0.5605
 3287TIP3   OH225527   2.577   1.701   1.584 -0.0287 -0.6739  0.4588
 3287TIP3    H125528   2.567   1.732   1.674 -0.2655 -1.2059  0.6212
 3287TIP3    H225529   2.490   1.712   1.545 -0.2180 -1.4707  0.6327
 3288TIP3   OH225530   6.145   6.109   1.176 -0.4589 -0.4357  0.0206
 3288TIP3    H125531   6.074   6.166   1.207 -1.3111 -1.3490 -0.1922
 3288TIP3    H225532   6.173   6.150   1.094 -1.3970 -0.5575 -0.3840
 3289TIP3   OH225533   3.613   4.348   1.393  0.2176  0.4227  0.0691
 3289TIP3    H125534   3.628   4.366   1.485 -0.5949  0.2201  0.2515
 3289TIP3    H225535   3.699   4.358   1.352  0.2169  2.5022  0.4993
 3290TIP3   OH225536   5.459   1.740   5.727  0.9627  0.0907 -0.0850
 3290TIP3    H125537   5.521   1.684   5.773 -1.3950 -1.3552  1.5618
 3290TIP3    H225538   5.472   1.719   5.635  1.1575 -2.1504  0.3929
 3291TIP3   OH225539   1.147   2.767   6.084 -0.0618  0.0262 -0.3676
 3291TIP3    H125540   1.059   2.795   6.062  0.5426  1.3083 -1.2361
 3291TIP3    H225541   1.162   2.689   6.031 -1.3010 -1.3201  1.1497
 3292TIP3   OH225542   1.540   1.039   1.407  0.0908 -0.3359  0.0526
 3292TIP3    H125543   1.506   1.071   1.323  1.6039 -0.0666 -0.4905
 3292TIP3    H225544   1.616   1.094   1.424 -0.4819 -0.0613  1.8746
 3293TIP3   OH225545   5.846   1.117   2.405 -0.3358 -0.0432  0.0158
 3293TIP3    H125546   5.776   1.164   2.360 -0.6666 -1.2041 -0.7218
 3293TIP3    H225547   5.807   1.034   2.431 -0.1713  0.5900  2.5241
 3294TIP3   OH225548   2.336   1.571   3.083 -0.0784  0.1053 -0.0454
 3294TIP3    H125549   2.336   1.638   3.151  2.0911 -0.5853  0.7274
 3294TIP3    H225550   2.246   1.538   3.082 -0.0521 -0.4096  3.1291
 3295TIP3   OH225551   0.863   1.732   1.939  0.7075  0.1663  0.5592
 3295TIP3    H125552   0.900   1.818   1.918  0.8555 -0.0102  0.0957
 3295TIP3    H225553   0.828   1.700   1.856  1.3437 -0.5580  0.5640
 3296TIP3   OH225554   2.012   4.259   7.512  0.0470  0.4750  0.2548
 3296TIP3    H125555   2.060   4.192   7.562  0.5491 -1.0462 -2.0800
 3296TIP3    H225556   1.933   4.274   7.562  0.1353 -1.5806  1.1198
 3297TIP3   OH225557   3.613   1.965   1.904 -0.4368  0.3544 -0.1786
 3297TIP3    H125558   3.619   1.911   1.825  0.0645 -0.4107  0.3560
 3297TIP3    H225559   3.540   2.024   1.888 -1.4013 -0.8948 -0.5643
 3298TIP3   OH225560   1.595   0.124   1.341  0.0534 -0.2759 -0.2547
 3298TIP3    H125561   1.647   0.046   1.363 -0.1168 -0.4802 -0.5831
 3298TIP3    H225562   1.637   0.195   1.391 -0.7889 -0.8645  1.3563
 3299TIP3   OH225563   4.744   5.978   7.630  0.3348  0.7144  0.2862
 3299TIP3    H125564   4.721   5.975   7.537 -0.5149  1.7614  0.4376
 3299TIP3    H225565   4.714   6.065   7.659 -0.5258 -0.0502  1.8062
 3300TIP3   OH225566   6.088   0.072   1.955 -0.0627  0.0114 -0.1630
 3300TIP3    H125567   6.130   0.080   2.040  1.7317 -2.0072 -0.7756
 3300TIP3    H225568   6.152   0.109   1.893 -1.0457  0.8293 -0.7148
 3301TIP3   OH225569   2.483   0.646   7.632 -0.3505  0.2848 -0.1525
 3301TIP3    H125570   2.454   0.733   7.603 -1.9555  0.0576  0.6451
 3301TIP3    H225571   2.404   0.593   7.630  0.4237 -0.9150  0.2874
 3302TIP3   OH225572   3.345   5.477   7.758 -0.0059  0.4721 -0.1246
 3302TIP3    H125573   3.404   5.415   7.715  0.0305 -0.5256  1.3180
 3302TIP3    H225574   3.260   5.463   7.715 -0.2412 -1.3279  0.8386
 3303TIP3   OH225575   5.732   3.698   1.533 -0.1340 -0.0993  0.0852
 3303TIP3    H125576   5.696   3.747   1.607 -1.1644 -1.5775  0.6226
 3303TIP3    H225577   5.779   3.624   1.574 -2.7106 -2.3132 -0.6594
 3304TIP3   OH225578   4.274   3.072   7.642 -0.1836 -0.6014  0.5124
 3304TIP3    H125579   4.241   3.084   7.553 -0.1570 -1.4995  0.3704
 3304TIP3    H225580   4.218   3.128   7.696  0.0883  0.3014 -0.1146
 3305TIP3   OH225581   1.274   2.437   7.701 -0.4505  0.5289 -0.1919
 3305TIP3    H125582   1.328   2.465   7.776 -0.0239 -1.3488  0.2668
 3305TIP3    H225583   1.200   2.392   7.741 -0.5168  0.0042 -0.9011
 3306TIP3   OH225584   1.520   6.001   1.753 -0.0948  0.2564  0.3907
 3306TIP3    H125585   1.560   5.923   1.716 -0.3405  0.5395 -0.4957
 3306TIP3    H225586   1.588   6.068   1.751  0.3057 -0.0840  1.7184
 3307TIP3   OH225587   6.306   2.825   7.132 -0.0795  0.0163 -1.0574
 3307TIP3    H125588   6.366   2.786   7.195  0.1783  1.0014 -0.6814
 3307TIP3    H225589   6.326   2.918   7.133 -0.8504  0.2068 -1.7570
 3308TIP3   OH225590   5.674   4.826   6.064  0.0973  0.2429 -1.1057
 3308TIP3    H125591   5.763   4.857   6.078 -0.0471 -0.4634  1.9341
 3308TIP3    H225592   5.618   4.898   6.096 -0.2494 -1.6415  3.1305
 3309TIP3   OH225593   2.878   1.078   1.098  0.1750 -0.8828 -0.0586
 3309TIP3    H125594   2.954   1.075   1.156 -0.3328 -1.9770  0.5951
 3309TIP3    H225595   2.878   0.993   1.053  0.0459 -0.4038 -0.9899
 3310TIP3   OH225596   5.570   4.441   7.007 -0.1845  0.4779  0.1335
 3310TIP3    H125597   5.628   4.468   7.078 -0.0448 -0.9537  0.5879
 3310TIP3    H225598   5.605   4.357   6.977 -2.4662 -0.8768  0.9754
 3311TIP3   OH225599   2.653   5.310   0.363  0.5996 -0.2271  0.0009
 3311TIP3    H125600   2.619   5.373   0.426  0.3635 -2.1248  1.9024
 3311TIP3    H225601   2.582   5.300   0.299 -0.1123  0.0705  0.7181
 3312TIP3   OH225602   5.542   3.428   7.018 -0.1374  0.6248  0.6594
 3312TIP3    H125603   5.577   3.466   6.937  0.6707 -0.5828  0.4281
 3312TIP3    H225604   5.518   3.338   6.994 -3.2835  1.2863  0.8341
 3313TIP3   OH225605   4.254   4.339   2.071 -0.1653 -0.0875 -0.1731
 3313TIP3    H125606   4.194   4.411   2.049  0.6586  0.6396 -0.0996
 3313TIP3    H225607   4.199   4.261   2.071 -1.5639  0.8037  1.9320
 3314TIP3   OH225608   3.701   4.735   6.478 -0.3624  0.0944  0.3517
 3314TIP3    H125609   3.677   4.720   6.387  0.8175  0.4204 -0.0298
 3314TIP3    H225610   3.694   4.649   6.520  2.5017 -0.8477 -0.8840
 3315TIP3   OH225611   4.608   2.812   1.094  0.3530 -0.0002 -0.5946
 3315TIP3    H125612   4.565   2.897   1.088 -0.7854 -0.2698  2.1071
 3315TIP3    H225613   4.584   2.767   1.013  1.1242  2.2453 -2.1526
 3316TIP3   OH225614   0.051   3.008   1.094  1.1153  0.1629  0.5544
 3316TIP3    H125615   0.013   3.028   1.179  0.0718 -2.1364  0.6996
 3316TIP3    H225616   0.047   2.912   1.087 -0.5246  0.3226 -2.8275
 3317TIP3   OH225617   1.575   0.777   6.686 -0.1753  0.6322 -0.7568
 3317TIP3    H125618   1.518   0.776   6.609 -2.1906 -0.6948  0.6346
 3317TIP3    H225619   1.540   0.848   6.740 -1.2711 -0.8256  0.5573
 3318TIP3   OH225620   4.542   6.047   1.308  0.6277 -0.4551  0.1947
 3318TIP3    H125621   4.551   5.951   1.308 -0.6570 -0.6092  1.0043
 3318TIP3    H225622   4.490   6.066   1.230  0.4167 -0.4821  0.3269
 3319TIP3   OH225623   6.004   6.178   6.031  0.1588  0.0268 -0.2621
 3319TIP3    H125624   5.924   6.126   6.021  0.2817 -1.1193  3.4123
 3319TIP3    H225625   5.979   6.266   6.004 -1.7606 -0.6991 -1.0226
 3320TIP3   OH225626   4.353   2.671   0.385  0.2289 -0.0403 -0.3990
 3320TIP3    H125627   4.345   2.721   0.304 -0.7648 -0.8000 -0.7926
 3320TIP3    H225628   4.369   2.581   0.356 -1.3674 -0.5527  0.1816
 3321TIP3   OH225629   4.834   4.069   6.942  0.3805  0.0470 -0.4215
 3321TIP3    H125630   4.781   4.067   7.022  1.1706  1.4184  0.1843
 3321TIP3    H225631   4.803   3.995   6.891 -1.2136  0.0276  0.4835
 3322TIP3   OH225632   2.347   2.156   1.484 -0.4375 -0.2550 -0.0404
 3322TIP3    H125633   2.440   2.138   1.491 -0.0826  1.5096  0.1211
 3322TIP3    H225634   2.335   2.239   1.529 -1.9763 -0.1042 -0.6786
 3323TIP3   OH225635   4.938   6.247   1.785 -0.5816  0.4140 -0.1135
 3323TIP3    H125636   4.882   6.257   1.708 -0.5484 -1.9743 -0.5244
 3323TIP3    H225637   4.971   6.157   1.779  0.4849  0.6073  1.9974
 3324TIP3   OH225638   2.806   2.726   0.323  0.0183 -0.3820 -0.0819
 3324TIP3    H125639   2.858   2.719   0.243  1.9194 -0.8002  1.1212
 3324TIP3    H225640   2.772   2.816   0.322 -0.0827 -0.4187 -1.3793
 3325TIP3   OH225641   0.494   3.413   1.169  0.0803  0.5173  0.4165
 3325TIP3    H125642   0.438   3.489   1.158 -0.0069  0.4290  0.2462
 3325TIP3    H225643   0.577   3.438   1.129  0.6269  1.1538  1.8688
 3326TIP3   OH225644   3.475   3.702   2.105  0.1401  0.7893 -0.5398
 3326TIP3    H125645   3.474   3.669   2.016  0.1681  0.7352 -0.5200
 3326TIP3    H225646   3.408   3.651   2.151 -1.2225  2.0990 -0.9911
 3327TIP3   OH225647   2.278   4.636   1.926 -0.4243 -0.0811  0.1212
 3327TIP3    H125648   2.213   4.688   1.878 -0.5248 -0.6306 -0.3583
 3327TIP3    H225649   2.334   4.599   1.857  0.9990  1.1278  0.5598
 3328TIP3   OH225650   3.721   5.534   0.131  0.1647  0.0783  0.0769
 3328TIP3    H125651   3.648   5.482   0.161 -0.9260  2.0623  1.0774
 3328TIP3    H225652   3.727   5.516   0.037 -0.2511 -1.6442  0.3499
 3329TIP3   OH225653   3.721   1.322   2.293  0.2298 -0.0576  0.6744
 3329TIP3    H125654   3.786   1.273   2.343  1.2313 -0.5180 -1.0167
 3329TIP3    H225655   3.641   1.314   2.345  1.4712  0.4968  2.7901
 3330TIP3   OH225656   2.828   3.361   5.692  0.0122 -0.2033 -0.4487
 3330TIP3    H125657   2.828   3.296   5.762 -0.6806 -0.5456 -0.7565
 3330TIP3    H225658   2.815   3.445   5.736  2.5709 -0.0193  0.1375
 3331TIP3   OH225659   5.626   4.148   7.094  0.4450  0.2732  0.1108
 3331TIP3    H125660   5.650   4.164   7.003 -0.5904 -0.3903 -0.3041
 3331TIP3    H225661   5.562   4.076   7.090 -1.0314  1.4520  1.1795
 3332TIP3   OH225662   1.603   1.410   0.586  0.1060 -0.2465 -0.5960
 3332TIP3    H125663   1.641   1.482   0.635 -0.2830 -0.9379  0.7592
 3332TIP3    H225664   1.618   1.332   0.640 -0.5223 -1.0070 -1.4719
 3333TIP3   OH225665   1.298   2.293   7.481 -0.4248 -0.1369  0.0484
 3333TIP3    H125666   1.218   2.323   7.439 -1.5186 -0.7159  1.6254
 3333TIP3    H225667   1.286   2.316   7.573  1.7045  0.7309  0.1620
 3334TIP3   OH225668   1.020   1.067   0.988 -0.8362 -0.5124 -0.1935
 3334TIP3    H125669   1.058   1.064   0.900 -0.3539  1.7992 -0.1256
 3334TIP3    H225670   1.080   1.121   1.038 -1.8683 -0.5828  1.1778
 3335TIP3   OH225671   3.139   1.928   7.493  0.0603 -0.3773 -0.0890
 3335TIP3    H125672   3.182   1.998   7.444  0.1648  0.4268  1.1120
 3335TIP3    H225673   3.164   1.848   7.447  0.7194  0.2860 -0.9270
 3336TIP3   OH225674   1.969   5.326   0.818  0.0118  0.1380  0.0787
 3336TIP3    H125675   1.971   5.412   0.776  0.9825  0.6661  1.1306
 3336TIP3    H225676   2.056   5.290   0.802 -0.4306 -0.7060 -0.4527
 3337TIP3   OH225677   0.463   6.063   7.739  0.4490  0.1947 -0.2096
 3337TIP3    H125678   0.382   6.101   7.773  1.5023  1.3842  1.1012
 3337TIP3    H225679   0.495   6.127   7.675  0.4655 -0.1721 -0.5736
 3338TIP3   OH225680   2.077   1.011   6.340  0.1755  0.1055 -0.3751
 3338TIP3    H125681   2.133   1.075   6.385 -1.5977  1.3343  0.1774
 3338TIP3    H225682   2.102   1.019   6.248  1.2664  0.2353 -0.0877
 3339TIP3   OH225683   0.338   4.205   2.296 -0.0975  0.2621  0.1268
 3339TIP3    H125684   0.282   4.282   2.288 -0.3025  0.0062 -1.1506
 3339TIP3    H225685   0.425   4.240   2.315 -0.4765  0.7189  1.0511
 3340TIP3   OH225686   6.256   5.911   0.236  0.5458 -0.0373  0.0504
 3340TIP3    H125687   6.321   5.864   0.289 -0.1241 -0.4568  0.5071
 3340TIP3    H225688   6.198   5.952   0.299 -0.6600 -1.0946 -0.3277
 3341TIP3   OH225689   4.460   0.793   0.217  0.0907  0.6203 -0.2968
 3341TIP3    H125690   4.524   0.839   0.271 -0.7063  1.4066  0.0142
 3341TIP3    H225691   4.385   0.853   0.214  0.4406  1.0531 -3.0796
 3342TIP3   OH225692   3.530   2.257   7.126 -0.4045  0.2076  0.8004
 3342TIP3    H125693   3.450   2.255   7.180  0.0432 -2.1594  1.4775
 3342TIP3    H225694   3.539   2.168   7.093  0.4907  1.0984 -1.5737
 3343TIP3   OH225695   6.203   2.814   0.094 -0.0301  0.0828  0.5394
 3343TIP3    H125696   6.263   2.873   0.049 -1.2453  0.0641 -1.2166
 3343TIP3    H225697   6.174   2.863   0.171 -0.4113  1.4973 -0.4635
 3344TIP3   OH225698   2.245   4.163   2.603  0.6207 -0.3883  0.2085
 3344TIP3    H125699   2.198   4.087   2.637 -1.5928  0.3794 -0.9011
 3344TIP3    H225700   2.240   4.228   2.673 -0.5074 -0.1274 -0.0995
 3345TIP3   OH225701   5.350   3.658   6.948 -0.5538  0.0172  0.7664
 3345TIP3    H125702   5.413   3.634   7.016  3.4766 -2.4365 -3.2597
 3345TIP3    H225703   5.303   3.577   6.929 -1.6104  0.6628  0.5352
 3346TIP3   OH225704   4.840   0.527   0.105 -0.0029 -0.4685 -0.0113
 3346TIP3    H125705   4.751   0.504   0.077 -0.6374  1.6431  0.0980
 3346TIP3    H225706   4.890   0.535   0.024 -0.4947  0.4645 -0.2378
 3347TIP3   OH225707   3.672   5.108   6.933  0.7447  0.2068 -0.5206
 3347TIP3    H125708   3.733   5.177   6.909  0.8277 -0.2248 -1.6063
 3347TIP3    H225709   3.680   5.043   6.862  0.8359 -1.0188  0.5675
 3348TIP3   OH225710   6.019   2.599   0.133  0.6455 -0.0189  0.1407
 3348TIP3    H125711   6.084   2.664   0.104 -0.6085  2.0910  1.7470
 3348TIP3    H225712   5.935   2.639   0.112 -0.1687 -1.5074  0.4774
 3349TIP3   OH225713   3.026   4.346   1.273  0.0619  0.0980  0.0863
 3349TIP3    H125714   2.984   4.308   1.350  1.2041  0.7833  1.0776
 3349TIP3    H225715   3.055   4.433   1.302  1.5489 -0.1006 -0.7570
 3350TIP3   OH225716   3.209   4.926   2.382  0.8462 -0.0686  0.5924
 3350TIP3    H125717   3.145   4.857   2.367  0.5402  0.6459 -1.8325
 3350TIP3    H225718   3.288   4.880   2.411  0.1785 -1.2618  0.5671
 3351TIP3   OH225719   5.692   2.608   1.655 -0.5626 -0.4996  0.2642
 3351TIP3    H125720   5.675   2.600   1.749  0.1691 -0.1041  0.4376
 3351TIP3    H225721   5.679   2.701   1.636 -2.7988 -0.9194 -0.4669
 3352TIP3   OH225722   4.173   1.819   6.834  0.5069 -0.0675  0.2430
 3352TIP3    H125723   4.222   1.812   6.752  0.0634 -0.3004 -0.0026
 3352TIP3    H225724   4.213   1.754   6.892  2.9535  2.1821  1.3308
 3353TIP3   OH225725   0.122   5.450   7.237  0.3565  0.5416  0.4035
 3353TIP3    H125726   0.192   5.452   7.302  0.4172 -0.5861  0.3969
 3353TIP3    H225727   0.048   5.409   7.281  1.0781 -2.3281 -0.7911
 3354TIP3   OH225728   2.652   1.540   0.859 -0.3678 -0.1187 -0.3047
 3354TIP3    H125729   2.708   1.571   0.931 -0.2755 -0.6695 -0.1379
 3354TIP3    H225730   2.588   1.611   0.847 -0.0458  0.2216 -0.0521
 3355TIP3   OH225731   2.585   1.801   2.347 -0.2062  0.3103 -0.0071
 3355TIP3    H125732   2.591   1.841   2.260  0.1037  1.2278  0.4185
 3355TIP3    H225733   2.647   1.728   2.345 -1.1434 -0.4933 -0.9652
 3356TIP3   OH225734   1.992   0.398   5.993 -0.1271  0.2076  0.0646
 3356TIP3    H125735   1.929   0.328   6.010 -0.0812  0.0532 -0.4106
 3356TIP3    H225736   2.067   0.355   5.953 -0.4765  0.6467 -1.1151
 3357TIP3   OH225737   0.932   3.250   0.080  0.5138 -0.0951 -0.5455
 3357TIP3    H125738   0.955   3.190   0.009  1.6277 -1.6150  1.0083
 3357TIP3    H225739   1.008   3.307   0.088  0.9394 -0.7364  0.1884
 3358TIP3   OH225740   2.718   0.994   0.430 -0.4337 -0.2558 -0.1517
 3358TIP3    H125741   2.628   0.994   0.398 -0.7168  1.9163  0.4661
 3358TIP3    H225742   2.725   1.073   0.484  2.5367  1.1130 -2.2406
 3359TIP3   OH225743   0.543   5.051   0.166  0.0041  0.0921  0.2541
 3359TIP3    H125744   0.636   5.029   0.162  0.1057  0.5244  0.1778
 3359TIP3    H225745   0.505   5.013   0.087 -0.2296 -1.6480  1.1701
 3360TIP3   OH225746   4.554   5.197   6.980 -0.0515  0.2247  0.0221
 3360TIP3    H125747   4.619   5.130   7.002  0.1801  0.9892  1.8951
 3360TIP3    H225748   4.473   5.164   7.018 -0.9035 -0.8515 -2.5349
 3361TIP3   OH225749   3.428   3.809   0.182 -0.0222 -0.3134  0.7253
 3361TIP3    H125750   3.367   3.819   0.255 -0.6807  1.0974  0.0232
 3361TIP3    H225751   3.507   3.773   0.222 -1.5156 -2.9864  1.5372
 3362TIP3   OH225752   3.249   0.150   1.505  0.3349 -0.2142 -0.7485
 3362TIP3    H125753   3.199   0.092   1.447 -0.6532  0.3531 -0.4850
 3362TIP3    H225754   3.228   0.120   1.593 -0.3506  0.6766 -0.6064
 3363TIP3   OH225755   4.978   0.243   1.365 -0.4873  0.0548 -0.3223
 3363TIP3    H125756   5.042   0.313   1.367  1.9664 -2.0055  2.3986
 3363TIP3    H225757   4.941   0.242   1.454 -0.7491 -1.7714 -0.4168
 3364TIP3   OH225758   1.602   5.709   7.383  0.0503 -0.2043 -0.0381
 3364TIP3    H125759   1.648   5.702   7.467 -2.6095 -1.9076  1.3990
 3364TIP3    H225760   1.632   5.633   7.333 -0.9241 -1.1422  0.7736
 3365TIP3   OH225761   2.438   0.754   1.465 -0.5945 -0.1379  0.6619
 3365TIP3    H125762   2.350   0.760   1.500 -0.0931  0.8093  1.8238
 3365TIP3    H225763   2.473   0.673   1.502 -0.6425 -0.0095  0.9890
 3366TIP3   OH225764   6.246   5.717   0.040  0.0105  0.2023 -0.0940
 3366TIP3    H125765   6.224   5.785   0.103 -0.7183 -0.8676  0.8240
 3366TIP3    H225766   6.237   5.760  -0.045  2.7322  2.1905  0.4705
 3367TIP3   OH225767   4.724   3.908   0.584  0.9581  0.1781 -0.2990
 3367TIP3    H125768   4.718   3.996   0.623  0.2286 -0.1816  0.4230
 3367TIP3    H225769   4.818   3.887   0.590  1.0590  0.6830  0.0370
 3368TIP3   OH225770   2.285   6.107   0.215  0.2414 -0.5893 -0.4704
 3368TIP3    H125771   2.288   6.129   0.308  0.4390 -1.8883 -0.1433
 3368TIP3    H225772   2.201   6.063   0.203 -0.9112  1.7587 -1.4660
 3369TIP3   OH225773   5.036   3.846   7.715  0.4791 -0.0244 -0.4852
 3369TIP3    H125774   4.981   3.774   7.748 -0.5612  0.4735 -1.0687
 3369TIP3    H225775   5.096   3.865   7.787  1.7366 -2.3850 -0.8178
 3370TIP3   OH225776   0.946   5.173   1.146 -0.1605  0.1553  0.5957
 3370TIP3    H125777   0.870   5.158   1.090  0.1810  1.4865 -0.2507
 3370TIP3    H225778   0.999   5.094   1.136 -0.0157  0.4409 -1.1262
 3371TIP3   OH225779   2.139   4.981   6.840  0.3433 -0.6028 -0.4400
 3371TIP3    H125780   2.169   4.971   6.750  2.5061  3.7177 -0.4372
 3371TIP3    H225781   2.044   4.991   6.834  0.1358 -2.8689 -1.8512
 3372TIP3   OH225782   1.615   2.188   7.189  0.3865 -0.2948 -0.5271
 3372TIP3    H125783   1.699   2.233   7.187  0.1435  0.2656  1.0164
 3372TIP3    H225784   1.550   2.258   7.188 -0.0412 -0.6790 -0.1676
 3373TIP3   OH225785   0.040   2.605   7.750 -0.9296 -0.1503  0.0999
 3373TIP3    H125786   0.033   2.607   7.655 -0.5525  0.7189  0.0842
 3373TIP3    H225787  -0.020   2.672   7.780 -0.5662  0.0277  0.4409
 3374TIP3   OH225788   0.232   5.887   7.757 -0.3647  0.0039  0.3762
 3374TIP3    H125789   0.233   5.825   7.830  0.4804 -0.3985  0.0353
 3374TIP3    H225790   0.320   5.882   7.720 -0.2108  1.5711  0.4707
 3375TIP3   OH225791   1.376   5.534   1.115  0.2470  0.3891  0.8195
 3375TIP3    H125792   1.356   5.583   1.195  0.8935  1.0777  0.5710
 3375TIP3    H225793   1.290   5.513   1.078 -0.0486  0.6723  1.3324
 3376TIP3   OH225794   6.291   5.541   6.644  0.2452  0.0207  0.4365
 3376TIP3    H125795   6.219   5.497   6.598  0.1573 -0.9688  1.4828
 3376TIP3    H225796   6.248   5.612   6.693 -0.0236 -0.5203  1.0000
 3377TIP3   OH225797   1.877   5.918   0.556 -0.2553 -0.4596 -0.1366
 3377TIP3    H125798   1.830   5.958   0.629  0.2377  0.2693 -0.2161
 3377TIP3    H225799   1.863   5.824   0.568 -0.0161 -0.3637  0.9965
 3378TIP3   OH225800   0.526   2.100   1.300 -0.6021 -0.5642 -0.4230
 3378TIP3    H125801   0.441   2.105   1.342 -0.3028 -1.0677  0.2761
 3378TIP3    H225802   0.585   2.148   1.358  0.2040 -2.8891  0.8410
 3379TIP3   OH225803   1.513   5.588   6.441  0.6765 -0.1376 -0.7726
 3379TIP3    H125804   1.478   5.499   6.438  0.1116 -0.0054  0.8353
 3379TIP3    H225805   1.559   5.593   6.525 -0.3063  1.4323 -0.2878
 3380TIP3   OH225806   2.790   4.682   0.293  0.3089  0.0313  0.3587
 3380TIP3    H125807   2.826   4.758   0.247  3.3118 -0.4454  1.6657
 3380TIP3    H225808   2.698   4.681   0.269  0.1993  3.8338 -0.0587
 3381TIP3   OH225809   3.917   3.197   0.101 -0.6247 -0.1497 -0.6798
 3381TIP3    H125810   3.862   3.199   0.023 -1.3713 -0.4964 -0.1754
 3381TIP3    H225811   3.878   3.128   0.156 -0.4499  0.4717  0.2394
 3382TIP3   OH225812   3.567   1.187   7.730 -0.5915 -0.1469 -0.0905
 3382TIP3    H125813   3.520   1.162   7.650 -1.2011 -0.0553  0.2341
 3382TIP3    H225814   3.559   1.111   7.787 -0.4666 -0.0770  0.0209
 3383TIP3   OH225815   0.897   2.353   6.307  0.1611 -0.3552  0.2471
 3383TIP3    H125816   0.980   2.320   6.274 -0.6931 -1.9121 -0.5202
 3383TIP3    H225817   0.832   2.318   6.245 -0.9446  2.1893 -0.1596
 3384TIP3   OH225818   1.141   4.985   0.056 -0.1972  0.1986 -0.0883
 3384TIP3    H125819   1.218   4.988  -0.001  0.4784  0.4329  0.8134
 3384TIP3    H225820   1.123   5.077   0.077 -0.3898  0.1061  0.1547
 3385TIP3   OH225821   2.584   3.944   7.345 -0.2113 -0.0441  0.3603
 3385TIP3    H125822   2.635   3.886   7.402 -0.8595  0.8960  1.9526
 3385TIP3    H225823   2.575   3.895   7.264  1.0721 -1.2775  0.9187
 3386TIP3   OH225824   0.040   0.715   0.257  1.0675 -1.0287  0.4855
 3386TIP3    H125825  -0.006   0.680   0.333 -1.8142  0.9413 -0.1919
 3386TIP3    H225826   0.059   0.638   0.204 -1.3704 -2.0405  0.9296
 3387TIP3   OH225827   0.211   5.963   6.902  0.0799 -0.2448 -0.5461
 3387TIP3    H125828   0.147   5.892   6.894  0.2422 -0.5302  0.5773
 3387TIP3    H225829   0.257   5.945   6.983  1.0772  0.3928 -0.9569
 3388TIP3   OH225830   2.676   4.820   0.948  0.8465 -0.5307 -0.1899
 3388TIP3    H125831   2.660   4.873   0.870  1.8813 -0.1589 -0.1640
 3388TIP3    H225832   2.590   4.785   0.971  0.3517  0.1855 -0.8914
 3389TIP3   OH225833   1.789   0.240   6.125 -0.0843  0.1927  0.1007
 3389TIP3    H125834   1.805   0.301   6.197  0.0933  2.0237 -1.3915
 3389TIP3    H225835   1.696   0.248   6.107  0.0830  0.6727 -0.6156
 3390TIP3   OH225836   5.152   6.012   0.703  0.3489  0.0499  0.1471
 3390TIP3    H125837   5.108   6.097   0.694  1.4536  0.6999  0.5882
 3390TIP3    H225838   5.149   5.974   0.616 -0.1375  0.5673 -0.0683
 3391TIP3   OH225839   2.487   0.537   0.288 -0.0652 -0.2303  0.1732
 3391TIP3    H125840   2.476   0.476   0.361  2.1273 -0.9149 -0.0089
 3391TIP3    H225841   2.510   0.620   0.330 -2.1312  0.3112  0.3684
 3392TIP3   OH225842   3.663   2.232   6.264 -0.0580  0.0769 -0.1392
 3392TIP3    H125843   3.637   2.230   6.356  1.8021 -0.8474  0.4227
 3392TIP3    H225844   3.733   2.297   6.261 -2.0199  2.2700 -1.5267
 3393TIP3   OH225845   2.046   5.837   1.832 -0.1085  0.4568 -0.2909
 3393TIP3    H125846   1.952   5.852   1.841 -0.0344  0.1818  1.0277
 3393TIP3    H225847   2.086   5.914   1.872  0.2396  0.2166 -0.1814
 3394TIP3   OH225848   0.148   3.277   7.730 -0.2982  0.4489 -0.1096
 3394TIP3    H125849   0.197   3.283   7.812  0.0043  1.7200 -0.3631
 3394TIP3    H225850   0.213   3.255   7.663 -0.4196  0.1493 -0.1320
 3395TIP3   OH225851   6.065   4.536   2.135  0.1043  0.0900 -0.5035
 3395TIP3    H125852   6.080   4.442   2.123  0.0753  0.0811 -0.4688
 3395TIP3    H225853   6.059   4.547   2.230 -0.9534 -0.0376 -0.5431
 3396TIP3   OH225854   2.348   2.012   1.920  0.4774 -0.1999 -0.5878
 3396TIP3    H125855   2.260   2.034   1.889 -0.6605 -0.4297  2.2369
 3396TIP3    H225856   2.345   1.917   1.935  1.2280 -0.2129 -0.4668
 3397TIP3   OH225857   4.053   0.605   6.719  0.5093  0.0166  0.1549
 3397TIP3    H125858   4.143   0.576   6.707  0.4831 -0.5433  1.1484
 3397TIP3    H225859   4.052   0.645   6.806 -0.3445 -0.6580  0.4828
 3398TIP3   OH225860   4.664   5.393   0.058 -0.0810 -0.0059 -0.2357
 3398TIP3    H125861   4.590   5.335   0.074 -0.6727  0.4052 -1.4253
 3398TIP3    H225862   4.740   5.334   0.055 -0.5677 -0.6261 -0.6382
 3399TIP3   OH225863   2.477   4.370   2.287  0.0792 -0.4297 -0.0328
 3399TIP3    H125864   2.499   4.461   2.306  1.5331 -0.4206 -1.5375
 3399TIP3    H225865   2.508   4.322   2.363 -0.1370  0.2568  0.5001
 3400TIP3   OH225866   4.542   6.071   2.631  0.1476  0.6244  0.0270
 3400TIP3    H125867   4.482   6.012   2.585  0.0769  0.2705  0.5643
 3400TIP3    H225868   4.629   6.033   2.617  0.2514  1.1067 -0.7048
 3401TIP3   OH225869   5.222   2.025   1.210 -0.2915  0.5197  0.7009
 3401TIP3    H125870   5.317   2.032   1.204 -0.3056 -0.1997 -2.7943
 3401TIP3    H225871   5.191   2.115   1.200  0.0613  0.4822 -1.1621
 3402TIP3   OH225872   0.357   2.738   1.510 -0.3403  0.0807  0.3225
 3402TIP3    H125873   0.291   2.702   1.451 -0.3344  0.4314  0.1027
 3402TIP3    H225874   0.326   2.826   1.531  0.4134  0.5296 -0.3583
 3403TIP3   OH225875   3.550   4.102   0.586  0.1026 -0.1691  0.2639
 3403TIP3    H125876   3.620   4.142   0.638  0.3141 -0.3386  0.1112
 3403TIP3    H225877   3.569   4.127   0.496 -0.9179  1.1096  0.3682
 3404TIP3   OH225878   5.754   4.775   1.429  0.5558  0.1291 -0.0911
 3404TIP3    H125879   5.672   4.726   1.422  1.1501 -0.6741 -2.8579
 3404TIP3    H225880   5.728   4.864   1.451 -1.1221 -0.0299 -1.2529
 3405TIP3   OH225881   3.194   4.571   1.292  0.0521  0.2853  0.5997
 3405TIP3    H125882   3.289   4.574   1.292  0.0241  2.4793 -0.0315
 3405TIP3    H225883   3.170   4.555   1.201 -0.1858  0.0953  0.6945
 3406TIP3   OH225884   6.055   2.579   1.262 -0.1981 -1.1466  0.1926
 3406TIP3    H125885   5.986   2.587   1.197  0.1917  4.0262  0.0155
 3406TIP3    H225886   6.010   2.584   1.346 -0.2145 -0.6162  0.1512
 3407TIP3   OH225887   2.895   4.245   0.523 -0.5155 -0.0042 -0.4244
 3407TIP3    H125888   2.933   4.316   0.472  3.6971 -0.0288  2.2184
 3407TIP3    H225889   2.860   4.287   0.602 -0.1558 -0.5902  0.0610
 3408TIP3   OH225890   1.567   1.375   1.545 -0.4619 -0.6497  0.5458
 3408TIP3    H125891   1.611   1.371   1.631  1.8589 -2.2098 -0.6018
 3408TIP3    H225892   1.518   1.457   1.547  2.0367  0.9465  2.2430
 3409TIP3   OH225893   2.652   2.867   7.068  0.1896  0.1161 -0.2824
 3409TIP3    H125894   2.725   2.808   7.087 -2.1723 -2.5461  1.2007
 3409TIP3    H225895   2.664   2.941   7.128  1.0340 -0.8463  0.7758
 3410TIP3   OH225896   3.297   3.862   1.870 -0.7624 -0.1171  0.0596
 3410TIP3    H125897   3.313   3.769   1.855  1.8060  0.3861 -0.9731
 3410TIP3    H225898   3.295   3.872   1.965 -0.6461 -1.1766  0.1811
 3411TIP3   OH225899   0.197   0.570   1.301 -0.2915 -0.0848 -0.0122
 3411TIP3    H125900   0.114   0.616   1.288  0.2958  1.8148  2.2314
 3411TIP3    H225901   0.197   0.546   1.394  0.5453 -2.5182 -0.5612
 3412TIP3   OH225902   4.945   1.131   2.188 -0.2718  0.5190 -0.4760
 3412TIP3    H125903   4.950   1.206   2.247 -0.2653 -0.0260  0.2310
 3412TIP3    H225904   4.888   1.160   2.118 -0.3419  1.1551 -0.1690
 3413TIP3   OH225905   2.758   3.627   5.927  0.1088 -0.1857  0.2798
 3413TIP3    H125906   2.756   3.720   5.951  0.7849 -0.2756  0.6925
 3413TIP3    H225907   2.668   3.597   5.940  0.3133 -0.0902  2.1429
 3414TIP3   OH225908   5.270   1.554   1.296 -0.5151 -1.0304 -0.3283
 3414TIP3    H125909   5.229   1.474   1.329  0.0374 -0.8807  0.7903
 3414TIP3    H225910   5.243   1.622   1.358  1.0151 -0.8498  0.1836
 3415TIP3   OH225911   4.475   6.143   0.128  0.1343  0.3590  0.1943
 3415TIP3    H125912   4.403   6.167   0.187  0.8649 -1.6314  2.0387
 3415TIP3    H225913   4.554   6.154   0.181  0.7856 -1.8795 -0.2246
 3416TIP3   OH225914   1.440   5.604   7.675  0.5743 -0.0889  0.1823
 3416TIP3    H125915   1.527   5.566   7.661  0.2554 -1.0466  0.7265
 3416TIP3    H225916   1.458   5.687   7.719  1.1840 -0.8239  1.3813
 3417TIP3   OH225917   4.307   3.094   6.968  0.0300  0.1478  0.1642
 3417TIP3    H125918   4.377   3.029   6.971  0.6689  0.8341  0.6973
 3417TIP3    H225919   4.320   3.146   7.047 -0.0183  1.3662 -0.6020
 3418TIP3   OH225920   5.127   5.821   0.163  0.3226  0.1861 -0.2898
 3418TIP3    H125921   5.178   5.789   0.088  0.2785  0.0219 -0.2511
 3418TIP3    H225922   5.036   5.798   0.142  0.5907 -2.5410  1.1152
 3419TIP3   OH225923   4.119   2.296   1.716  0.3941  0.3101 -0.0591
 3419TIP3    H125924   4.185   2.289   1.785  1.8237  0.9140 -1.2921
 3419TIP3    H225925   4.057   2.225   1.734  1.4436 -0.3602  1.0773
 3420TIP3   OH225926   2.004   4.975   0.723  0.2399 -0.1074 -0.1806
 3420TIP3    H125927   1.994   5.052   0.666 -0.2673  0.9498  1.2612
 3420TIP3    H225928   2.096   4.978   0.750 -0.2014  1.1135  1.3258
 3421TIP3   OH225929   0.577   1.819   0.660 -0.1059 -0.4137  0.4128
 3421TIP3    H125930   0.487   1.795   0.640 -0.6367  0.9054  1.0799
 3421TIP3    H225931   0.616   1.839   0.575 -0.9942  0.7365  0.2450
 3422TIP3   OH225932   6.011   1.999   0.977  0.4415 -0.0443  0.2350
 3422TIP3    H125933   6.090   1.997   0.922 -0.5989  0.1454 -1.3492
 3422TIP3    H225934   5.957   2.068   0.938 -1.1146 -1.1389  0.3664
 3423TIP3   OH225935   2.769   0.282   6.186 -0.6270 -0.4995  0.8223
 3423TIP3    H125936   2.795   0.331   6.264 -1.1492  0.9201  0.1421
 3423TIP3    H225937   2.838   0.300   6.122 -0.6348 -0.9608  0.6772
 3424TIP3   OH225938   1.166   1.558   0.245  0.1813  0.3796  0.2336
 3424TIP3    H125939   1.257   1.561   0.276  0.3824 -0.6782 -0.1921
 3424TIP3    H225940   1.165   1.485   0.183 -0.8808  0.6201 -0.0455
 3425TIP3   OH225941   5.658   4.081   1.148 -0.5396 -0.1996  0.3731
 3425TIP3    H125942   5.625   4.166   1.118  0.3101  0.3091  0.8466
 3425TIP3    H225943   5.606   4.017   1.099 -1.4382  0.5814  0.2738
 3426TIP3   OH225944   3.185   2.257   0.749 -0.0545 -0.5129 -0.6674
 3426TIP3    H125945   3.160   2.348   0.736 -0.3675 -0.5463 -0.3123
 3426TIP3    H225946   3.133   2.208   0.685 -2.3114 -0.7841  1.2160
 3427TIP3   OH225947   1.597   2.712   0.445  0.1988  0.2953  0.2987
 3427TIP3    H125948   1.564   2.624   0.425  1.3595  0.0363 -0.6219
 3427TIP3    H225949   1.616   2.751   0.360  1.2097  0.8218  0.7480
 3428TIP3   OH225950   4.132   5.874   6.618 -0.2499 -0.4617  0.6114
 3428TIP3    H125951   4.136   5.781   6.639  1.3645 -0.3964  0.7066
 3428TIP3    H225952   4.175   5.880   6.532  1.0749  0.3737  1.3074
 3429TIP3   OH225953   3.688   3.632   7.245  0.2855 -0.0551  0.4720
 3429TIP3    H125954   3.600   3.651   7.212  0.4203 -0.5303 -0.1814
 3429TIP3    H225955   3.704   3.699   7.311  0.0549  0.9941 -0.5155
 3430TIP3   OH225956   5.209   1.021   7.641 -0.4911  0.0229 -0.0945
 3430TIP3    H125957   5.300   1.027   7.612  0.6355 -1.0560  2.8834
 3430TIP3    H225958   5.185   1.111   7.664 -0.3272  0.3558 -1.1644
 3431TIP3   OH225959   2.313   5.162   0.466 -0.3925  0.2720 -0.2856
 3431TIP3    H125960   2.322   5.206   0.382 -1.2634  2.3849  0.6741
 3431TIP3    H225961   2.356   5.077   0.453  0.3307  0.9226 -2.5488
 3432TIP3   OH225962   0.859   5.417   6.297  0.3988 -0.2343  0.3168
 3432TIP3    H125963   0.797   5.473   6.344 -0.5025 -0.6249 -0.3806
 3432TIP3    H225964   0.842   5.434   6.204 -0.1786 -1.9440  0.0691
 3433TIP3   OH225965   0.432   4.766   1.069 -0.1051 -0.1174 -0.1480
 3433TIP3    H125966   0.391   4.684   1.044 -1.5380  0.2220  0.9485
 3433TIP3    H225967   0.509   4.740   1.120 -0.7464 -0.7851  0.4941
 3434TIP3   OH225968   0.746   0.015   1.384  0.1052 -0.2836  0.0522
 3434TIP3    H125969   0.819   0.069   1.414  0.9107 -1.3247  0.0098
 3434TIP3    H225970   0.672   0.043   1.439  0.7094  0.2720  0.6025
 3435TIP3   OH225971   2.590   1.976   6.727  0.1687  0.3862  0.1367
 3435TIP3    H125972   2.531   1.935   6.664  1.5953 -0.9523 -0.4079
 3435TIP3    H225973   2.560   1.944   6.812  1.1027 -1.7249 -0.2560
 3436TIP3   OH225974   4.425   0.281   6.270  0.4391  0.6024 -0.3143
 3436TIP3    H125975   4.466   0.209   6.223 -3.4930 -2.7198  0.7747
 3436TIP3    H225976   4.370   0.325   6.205 -0.9169 -0.6202 -0.0465
 3437TIP3   OH225977   5.114   0.206   6.239  0.1524  0.0979 -0.5348
 3437TIP3    H125978   5.069   0.234   6.159 -0.4845  1.0239  0.1310
 3437TIP3    H225979   5.206   0.225   6.222 -0.2638  3.2610  0.0706
 3438TIP3   OH225980   0.243   0.487   1.830 -0.3583  0.4080 -0.1197
 3438TIP3    H125981   0.314   0.532   1.876 -0.9197  0.2694  0.9288
 3438TIP3    H225982   0.260   0.394   1.845 -1.6542  0.3893  1.6336
 3439TIP3   OH225983   5.882   3.430   7.545  0.2128  0.7859  0.5369
 3439TIP3    H125984   5.922   3.466   7.465 -1.2147  1.2136 -0.0305
 3439TIP3    H225985   5.788   3.437   7.529 -0.1119  1.0450  2.3451
 3440TIP3   OH225986   2.138   1.173   1.534  0.0263  0.3418  0.1222
 3440TIP3    H125987   2.231   1.186   1.518  0.8222 -3.7252  0.4701
 3440TIP3    H225988   2.130   1.174   1.629 -0.1826  0.0611  0.1077
 3441TIP3   OH225989   5.864   4.366   0.729  0.0211 -0.0669  0.6211
 3441TIP3    H125990   5.948   4.357   0.683 -1.5299  0.1057 -2.5049
 3441TIP3    H225991   5.834   4.276   0.740  0.5553 -0.1256  1.6711
 3442TIP3   OH225992   5.666   2.572   0.890 -0.3450  0.0185  0.3966
 3442TIP3    H125993   5.696   2.607   0.806 -0.9008  0.4601  0.3759
 3442TIP3    H225994   5.596   2.510   0.866 -0.2341 -0.1524  0.5123
 3443TIP3   OH225995   2.628   6.044   0.171  0.1966  0.2673 -0.3520
 3443TIP3    H125996   2.687   6.010   0.237 -0.7755 -0.9476 -0.0650
 3443TIP3    H225997   2.603   6.131   0.203 -0.6732 -0.5064  1.1876
 3444TIP3   OH225998   2.660   5.028   0.135  0.2126  0.3633  0.7396
 3444TIP3    H125999   2.682   5.023   0.042 -0.5643 -0.5880  0.5934
 3444TIP3    H226000   2.583   5.085   0.139  0.2444  0.4023  0.8017
 3445TIP3   OH226001   6.012   1.366   1.244  0.1485 -0.3595 -0.3727
 3445TIP3    H126002   6.056   1.292   1.284 -0.4393 -0.3908  0.2362
 3445TIP3    H226003   6.071   1.394   1.174  0.6169 -1.0693 -0.2739
 3446TIP3   OH226004   1.160   1.915   2.616 -0.2323  0.1002  0.0804
 3446TIP3    H126005   1.081   1.879   2.657  0.6573  0.1813  1.9779
 3446TIP3    H226006   1.143   2.009   2.608 -0.0245  0.2538  1.2878
 3447TIP3   OH226007   6.199   0.590   1.000 -0.4241  0.1021  0.7246
 3447TIP3    H126008   6.122   0.547   0.962  0.0696  0.7806 -1.1294
 3447TIP3    H226009   6.251   0.518   1.035 -0.5399 -0.6611 -0.5936
 3448TIP3   OH226010   1.762   3.332   7.284  0.3515 -0.1453  0.3442
 3448TIP3    H126011   1.853   3.314   7.308  0.1960  0.5419  1.5258
 3448TIP3    H226012   1.768   3.402   7.219  0.6877 -0.6269 -0.1551
 3449TIP3   OH226013   0.818   2.399   0.284 -0.0257 -0.1003 -0.3202
 3449TIP3    H126014   0.818   2.444   0.199  0.2715  1.7949  0.6265
 3449TIP3    H226015   0.809   2.469   0.348 -0.5311 -1.5194  1.2242
 3450TIP3   OH226016   4.893   5.793   1.139  0.3994 -0.3900  0.0471
 3450TIP3    H126017   4.833   5.798   1.214  0.5676  1.0708  0.1155
 3450TIP3    H226018   4.839   5.758   1.068 -0.7570  1.4857 -0.0672
 3451TIP3   OH226019   3.057   3.489   0.911  0.3448  0.2040 -0.7804
 3451TIP3    H126020   3.035   3.472   0.820  2.4761  0.0692 -1.3326
 3451TIP3    H226021   3.150   3.467   0.918  0.5474  1.3954  1.1208
 3452TIP3   OH226022   3.135   4.495   2.251  0.0383 -0.5537  0.3512
 3452TIP3    H126023   3.226   4.470   2.232 -0.2043 -1.2609  0.1108
 3452TIP3    H226024   3.089   4.412   2.262 -1.3964 -0.4050 -3.2263
 3453TIP3   OH226025   2.312   6.015   0.496  0.2732  0.2237  0.9029
 3453TIP3    H126026   2.353   6.101   0.489  0.4718  0.2367  2.0537
 3453TIP3    H226027   2.339   5.982   0.581 -0.3084 -0.7216  0.7404
 3454TIP3   OH226028   5.433   2.733   5.790  0.6072  0.0987 -0.0127
 3454TIP3    H126029   5.516   2.738   5.743  0.6875 -2.2881 -0.2376
 3454TIP3    H226030   5.449   2.671   5.861 -0.5325  0.9047  1.0044
 3455TIP3   OH226031   2.146   3.853   0.853 -0.1477  0.1474 -0.2977
 3455TIP3    H126032   2.191   3.840   0.937 -0.3632 -2.4564 -0.5091
 3455TIP3    H226033   2.059   3.885   0.877  0.3903  1.1862  0.3458
 3456TIP3   OH226034   0.560   1.786   5.772 -0.0295  0.4598 -0.2180
 3456TIP3    H126035   0.623   1.736   5.825 -0.3153  1.5730  1.2459
 3456TIP3    H226036   0.485   1.727   5.762  0.2375  0.0410  0.1812
 3457TIP3   OH226037   5.908   0.954   1.687 -0.1736  0.4324 -0.8624
 3457TIP3    H126038   5.853   1.023   1.649  2.0342  1.2823 -2.7423
 3457TIP3    H226039   5.931   0.987   1.774 -2.1459  0.2764 -0.2293
 3458TIP3   OH226040   0.470   3.487   0.382  0.2469  0.1300 -0.2202
 3458TIP3    H126041   0.511   3.554   0.436 -0.0112 -0.4762  0.7579
 3458TIP3    H226042   0.381   3.479   0.417  0.4235 -1.0457 -0.0017
 3459TIP3   OH226043   3.538   0.984   0.157 -0.2144 -0.3111  0.3818
 3459TIP3    H126044   3.515   1.032   0.237 -1.9899  0.7754 -0.6991
 3459TIP3    H226045   3.465   0.924   0.144  0.1989 -0.6809 -0.2636
 3460TIP3   OH226046   2.239   5.913   1.031 -0.2037  0.4771 -0.1646
 3460TIP3    H126047   2.290   5.992   1.049  0.8752 -0.2970  0.2941
 3460TIP3    H226048   2.220   5.878   1.118  0.9052 -0.7207 -0.3710
 3461TIP3   OH226049   3.830   2.366   1.426 -0.2831 -0.1191  0.4058
 3461TIP3    H126050   3.795   2.419   1.497 -0.0250  0.9376 -0.2226
 3461TIP3    H226051   3.753   2.327   1.384 -0.5493  0.4367  0.3694
 3462TIP3   OH226052   3.238   3.712   6.395 -0.0378  0.1129  0.4944
 3462TIP3    H126053   3.310   3.721   6.332  0.0991 -0.2976  0.5857
 3462TIP3    H226054   3.221   3.801   6.425 -0.5899  0.4110 -0.6459
 3463TIP3   OH226055   0.121   0.445   6.887 -0.1461 -0.0802  0.1341
 3463TIP3    H126056   0.115   0.521   6.830 -0.7210  0.2889  0.6748
 3463TIP3    H226057   0.163   0.477   6.966  1.4378 -0.7873 -0.3960
 3464TIP3   OH226058   3.119   5.962   1.462 -0.1430 -0.5693  0.1843
 3464TIP3    H126059   3.050   5.896   1.469 -1.3935  0.4161 -1.7084
 3464TIP3    H226060   3.107   6.017   1.540 -1.3444 -0.5913  0.0463
 3465TIP3   OH226061   1.631   2.950   2.288 -0.1469 -0.2269 -0.2200
 3465TIP3    H126062   1.640   2.854   2.287  0.6445 -0.1808  0.8975
 3465TIP3    H226063   1.647   2.976   2.198 -0.5134 -1.1616 -0.5706
 3466TIP3   OH226064   4.770   2.267   0.033 -0.2582  0.2429  0.2978
 3466TIP3    H126065   4.816   2.308   0.107  0.3314  0.7745 -0.3524
 3466TIP3    H226066   4.840   2.239  -0.026 -0.7460  2.2399 -1.3407
 3467TIP3   OH226067   6.065   4.572   0.026  0.0870  0.4450 -0.4150
 3467TIP3    H126068   6.064   4.655   0.074 -0.5439 -1.1260  2.4967
 3467TIP3    H226069   5.974   4.559  -0.001 -0.0677  0.1451  0.2262
 3468TIP3   OH226070   1.481   3.058   1.278 -0.2302 -0.0714 -0.7200
 3468TIP3    H126071   1.537   3.099   1.212  0.8060 -0.6948 -0.2573
 3468TIP3    H226072   1.478   2.966   1.253  0.8192 -0.4686  0.5207
 3469TIP3   OH226073   3.795   3.524   1.261 -0.4796 -0.3023  0.0859
 3469TIP3    H126074   3.785   3.447   1.318 -0.7311  0.2582  0.8198
 3469TIP3    H226075   3.888   3.527   1.242 -0.2913 -0.1712  0.9567
 3470TIP3   OH226076   6.200   3.100   6.012  0.2089  0.2242  0.6945
 3470TIP3    H126077   6.294   3.081   6.020  0.1217 -0.3551  0.4146
 3470TIP3    H226078   6.191   3.191   6.042  0.9219  0.4237  0.3216
 3471TIP3   OH226079   2.654   3.759   0.694 -0.3103 -0.0876  0.0624
 3471TIP3    H126080   2.720   3.771   0.625  0.3925 -0.4002  0.6744
 3471TIP3    H226081   2.681   3.819   0.763 -1.4670  0.8115 -0.2466
 3472TIP3   OH226082   0.004   0.751   6.055 -0.0781 -0.2677 -0.2844
 3472TIP3    H126083   0.039   0.684   6.115 -2.1896 -0.4309  0.8755
 3472TIP3    H226084  -0.017   0.825   6.112 -2.1938 -0.4460 -0.7614
 3473TIP3   OH226085   1.007   4.599   6.363  0.6178 -0.6425  0.6318
 3473TIP3    H126086   1.093   4.627   6.394  0.6414  0.4605 -0.3208
 3473TIP3    H226087   1.024   4.563   6.276  0.0830 -0.0773  0.2844
 3474TIP3   OH226088   5.640   5.035   0.028 -0.4525  0.1853  0.4211
 3474TIP3    H126089   5.670   5.027   0.118 -0.6489 -0.7484  0.4063
 3474TIP3    H226090   5.549   5.063   0.035 -0.5890 -0.2825  0.5193
 3475TIP3   OH226091   2.940   1.907   7.660 -0.1047  0.1027 -0.2152
 3475TIP3    H126092   3.013   1.911   7.598  0.3112  0.3076  0.2792
 3475TIP3    H226093   2.904   1.995   7.661  2.0605  1.0872  2.3754
 3476TIP3   OH226094   5.084   2.651   1.650 -0.5181 -0.4998  0.3053
 3476TIP3    H126095   5.096   2.611   1.736  0.4824 -1.6641 -0.3460
 3476TIP3    H226096   5.151   2.611   1.595 -0.9479  0.4352 -0.9573
 3477TIP3   OH226097   1.440   5.833   1.964  0.0030  0.0094 -0.0631
 3477TIP3    H126098   1.511   5.878   1.919  0.4674  0.0213  0.6519
 3477TIP3    H226099   1.374   5.900   1.979  0.4820  0.3473  0.5665
 3478TIP3   OH226100   5.551   4.469   2.016 -0.2335 -0.0637 -0.3221
 3478TIP3    H126101   5.555   4.475   2.111  1.0063 -0.3294 -0.3373
 3478TIP3    H226102   5.547   4.560   1.986  0.9486  0.1013 -0.0425
 3479TIP3   OH226103   0.808   4.444   7.303 -0.0475 -0.0149 -0.0655
 3479TIP3    H126104   0.716   4.459   7.326 -0.0108  0.3233 -0.1263
 3479TIP3    H226105   0.855   4.516   7.345  0.2317 -0.3671  0.2290
 3480TIP3   OH226106   6.287   3.152   7.116 -0.0347 -0.5771 -0.0109
 3480TIP3    H126107   6.383   3.148   7.113  0.0587  0.9453  0.1088
 3480TIP3    H226108   6.267   3.243   7.098 -1.4887 -0.9372 -0.2926
 3481TIP3   OH226109   0.591   4.964   6.619 -1.0804 -0.1773  0.6907
 3481TIP3    H126110   0.656   4.962   6.549 -3.0291 -1.3216 -1.1757
 3481TIP3    H226111   0.585   5.057   6.643  1.2131 -0.0353  0.9845
 3482TIP3   OH226112   1.046   6.040   6.921 -0.4045  0.1003 -0.4043
 3482TIP3    H126113   1.078   5.957   6.885  2.7726  0.2047  1.8249
 3482TIP3    H226114   1.102   6.107   6.881 -0.7842  0.8146  0.2276
 3483TIP3   OH226115   4.178   4.222   0.492  0.4645  0.1333 -0.0362
 3483TIP3    H126116   4.094   4.246   0.453  0.5010  2.2891  1.0651
 3483TIP3    H226117   4.225   4.178   0.422 -1.9300 -2.1062 -0.3813
 3484TIP3   OH226118   1.785   3.360   0.131 -0.0747  0.3911 -0.1947
 3484TIP3    H126119   1.802   3.439   0.081 -0.1201  0.6296  0.1611
 3484TIP3    H226120   1.778   3.390   0.222 -0.1641 -0.0090 -0.0661
 3485TIP3   OH226121   3.316   5.033   2.062  0.1078  0.7412  0.7604
 3485TIP3    H126122   3.345   5.036   1.971  0.4103 -0.1058  0.8204
 3485TIP3    H226123   3.282   4.944   2.074  2.0150  0.1163  2.0414
 3486TIP3   OH226124   3.400   1.857   6.840  0.1917 -0.1372 -0.2215
 3486TIP3    H126125   3.425   1.949   6.830  0.3663 -0.3410 -2.0451
 3486TIP3    H226126   3.467   1.809   6.791  0.3186 -1.2920  1.0158
 3487TIP3   OH226127   2.590   5.866   2.810  0.4052  0.0160  0.8618
 3487TIP3    H126128   2.672   5.841   2.766  0.7326  0.0664  1.4270
 3487TIP3    H226129   2.528   5.798   2.785  0.4721  0.2718 -0.0075
 3488TIP3   OH226130   4.547   1.635   7.570 -0.2363  0.0081  0.3481
 3488TIP3    H126131   4.542   1.540   7.556 -0.6604  0.1948 -0.9453
 3488TIP3    H226132   4.623   1.647   7.627 -0.3190 -1.1285  0.7177
 3489TIP3   OH226133   5.554   0.865   5.987  0.0694  0.2027  0.6801
 3489TIP3    H126134   5.483   0.806   6.012 -0.3804  1.0996  1.6111
 3489TIP3    H226135   5.509   0.940   5.947  0.5328  0.4638  0.6373
 3490TIP3   OH226136   0.099   2.383   1.534 -0.0892  0.1929  0.1610
 3490TIP3    H126137   0.030   2.372   1.599 -1.0915  1.4989 -0.6355
 3490TIP3    H226138   0.180   2.386   1.585 -0.8546  1.2509  1.3800
 3491TIP3   OH226139   1.035   4.427   6.834  0.3072  0.0563 -0.1953
 3491TIP3    H126140   1.114   4.413   6.887  1.4223 -0.2994 -1.8938
 3491TIP3    H226141   1.067   4.465   6.753 -1.5684  2.3083  0.0313
 3492TIP3   OH226142   0.720   2.392   6.989  0.7288  0.5008  0.3513
 3492TIP3    H126143   0.652   2.366   6.928  1.4326  1.4877 -0.9016
 3492TIP3    H226144   0.801   2.391   6.938  1.2854  1.7298  1.1308
 3493TIP3   OH226145   2.974   0.344   0.825  0.4766 -0.1168  0.3387
 3493TIP3    H126146   2.999   0.259   0.863  0.7974  0.2166  0.8908
 3493TIP3    H226147   2.984   0.406   0.897 -1.1666  0.1778  0.3400
 3494TIP3   OH226148   1.711   3.507   6.597  0.5324 -0.0211 -0.1443
 3494TIP3    H126149   1.727   3.423   6.639  0.8816 -0.3192 -0.8615
 3494TIP3    H226150   1.714   3.488   6.504  0.7777  0.8180 -0.3137
 3495TIP3   OH226151   2.228   5.498   6.122  0.2749 -0.1107  0.4071
 3495TIP3    H126152   2.261   5.519   6.035  1.8914 -0.5501  0.8792
 3495TIP3    H226153   2.137   5.472   6.108  0.7013 -0.8405 -1.2388
 3496TIP3   OH226154   5.034   0.092   1.122  0.0779  0.3021  0.6568
 3496TIP3    H126155   5.001   0.106   1.211 -1.0194 -0.7973  0.4499
 3496TIP3    H226156   4.962   0.117   1.065 -0.2134 -1.5112  0.1710
 3497TIP3   OH226157   0.143   4.561   7.631  0.2980  0.0421 -0.0605
 3497TIP3    H126158   0.073   4.510   7.671  0.6636 -0.5686 -0.1943
 3497TIP3    H226159   0.220   4.543   7.683  0.9612 -1.3790 -1.4534
 3498TIP3   OH226160   2.756   2.381   7.256  0.0987 -0.1932 -0.3046
 3498TIP3    H126161   2.716   2.401   7.171  0.4722  0.0931 -0.4187
 3498TIP3    H226162   2.815   2.308   7.238 -0.7407 -0.9515 -0.0318
 3499TIP3   OH226163   5.891   4.045   7.487  0.1932  0.0358 -0.6479
 3499TIP3    H126164   5.918   4.042   7.395 -1.5239  1.5301 -1.2594
 3499TIP3    H226165   5.795   4.040   7.483 -0.0540  2.2263  0.8993
 3500TIP3   OH226166   1.146   1.470   7.068 -0.1016  0.5624 -0.1011
 3500TIP3    H126167   1.113   1.540   7.010 -2.2653  1.2406  1.8157
 3500TIP3    H226168   1.073   1.408   7.073  1.3381 -1.2443 -0.7540
 3501TIP3   OH226169   0.105   0.715   6.422 -0.2839  0.3796 -0.0864
 3501TIP3    H126170   0.169   0.765   6.370 -0.6004  0.5694 -0.2918
 3501TIP3    H226171   0.093   0.634   6.374  1.3541 -0.5611  1.0001
 3502TIP3   OH226172   3.849   1.097   1.492  0.1943  0.0621  0.0295
 3502TIP3    H126173   3.803   1.105   1.575  1.5981  3.8168  0.6438
 3502TIP3    H226174   3.797   1.150   1.431  1.6241  1.2146 -0.2325
 3503TIP3   OH226175   1.937   2.616   6.849 -0.4388  0.2583 -0.1343
 3503TIP3    H126176   2.012   2.560   6.868 -1.7584 -1.0934  1.3902
 3503TIP3    H226177   1.974   2.690   6.801  1.8450 -0.3494  0.5711
 3504TIP3   OH226178   0.595   3.950   1.546 -0.2986 -0.8378  0.5631
 3504TIP3    H126179   0.595   4.025   1.605 -0.6359 -0.8335  0.5588
 3504TIP3    H226180   0.502   3.932   1.529 -0.2000  0.6132 -1.8519
 3505TIP3   OH226181   4.339   3.522   1.803  0.3053 -0.0836 -0.0066
 3505TIP3    H126182   4.255   3.550   1.765 -0.9994 -0.3887  2.4185
 3505TIP3    H226183   4.350   3.579   1.879  1.2574 -1.3966  0.8756
 3506TIP3   OH226184   0.793   0.242   7.088 -0.4292 -0.2268 -0.2731
 3506TIP3    H126185   0.826   0.328   7.063  1.4734 -0.9200 -0.3501
 3506TIP3    H226186   0.722   0.224   7.026  0.4234  0.4761 -1.4865
 3507TIP3   OH226187   2.774   4.823   7.379  0.4834  0.0064 -0.5233
 3507TIP3    H126188   2.857   4.832   7.426  0.8915 -1.3486 -0.9284
 3507TIP3    H226189   2.748   4.732   7.394 -1.2802  0.5828  0.1310
 3508TIP3   OH226190   6.161   4.069   0.726 -0.3574 -0.3270  0.0693
 3508TIP3    H126191   6.193   4.130   0.660 -0.7425 -0.9019 -0.6701
 3508TIP3    H226192   6.239   4.041   0.773  0.3222 -1.7451 -1.7357
 3509TIP3   OH226193   4.602   6.008   6.743 -0.1725 -0.0271  0.3514
 3509TIP3    H126194   4.610   6.047   6.656 -2.7809  0.5529  0.2904
 3509TIP3    H226195   4.631   6.077   6.802  0.3915  0.0456 -0.0060
 3510TIP3   OH226196   3.430   0.831   6.342  0.6235 -0.4760 -0.5619
 3510TIP3    H126197   3.417   0.745   6.303  0.2278 -0.1598 -1.1303
 3510TIP3    H226198   3.377   0.829   6.422  0.7597 -0.8176 -0.4762
 3511TIP3   OH226199   5.098   2.329   7.279  0.5726 -0.6550 -0.7093
 3511TIP3    H126200   5.091   2.414   7.322  2.9265 -1.3268  1.2352
 3511TIP3    H226201   5.129   2.348   7.191  3.7724  0.4810  0.5405
 3512TIP3   OH226202   5.725   4.434   6.681  0.6032 -0.0432 -0.2191
 3512TIP3    H126203   5.669   4.509   6.661  2.0789  0.4740 -2.9868
 3512TIP3    H226204   5.804   4.472   6.720  0.8727 -0.2450 -0.5541
 3513TIP3   OH226205   6.140   1.109   1.331  0.5424  0.3116  0.2598
 3513TIP3    H126206   6.160   1.058   1.410 -0.6071  2.6221  2.1887
 3513TIP3    H226207   6.102   1.045   1.271  2.8759 -1.8386  0.9110
 3514TIP3   OH226208   1.774   4.684   0.020  0.1875  0.2831  0.2708
 3514TIP3    H126209   1.784   4.611   0.082  1.4324  1.2952  1.3201
 3514TIP3    H226210   1.739   4.643  -0.059 -0.2613 -1.2583  1.2190
 3515TIP3   OH226211   5.397   0.016   7.419 -0.1530  0.1605 -0.0725
 3515TIP3    H126212   5.451  -0.062   7.404  0.1189  0.4593 -0.6808
 3515TIP3    H226213   5.353  -0.001   7.502 -1.1302 -1.2425 -0.8276
 3516TIP3   OH226214   2.885   3.851   7.496 -0.1257  0.1724 -0.3014
 3516TIP3    H126215   2.979   3.860   7.511 -0.1350  0.2892 -0.3158
 3516TIP3    H226216   2.862   3.768   7.539 -0.4743  1.3027  1.8586
 3517TIP3   OH226217   4.627   0.016   1.214 -0.5330 -0.1401  0.7799
 3517TIP3    H126218   4.554   0.011   1.152 -0.3404 -1.4502  0.6276
 3517TIP3    H226219   4.690  -0.049   1.183  1.0544  1.4639  0.5065
 3518TIP3   OH226220   0.145   3.304   0.748 -0.0846 -0.0766  0.1548
 3518TIP3    H126221   0.224   3.352   0.723  0.2507 -0.6988  0.0027
 3518TIP3    H226222   0.175   3.240   0.812 -0.5723  0.0816  0.5436
 3519TIP3   OH226223   1.471   0.606   0.409 -0.3336  0.0496  0.0534
 3519TIP3    H126224   1.565   0.610   0.428 -0.3606 -0.6746  0.3684
 3519TIP3    H226225   1.429   0.644   0.487 -0.3177  0.0558  0.0589
 3520TIP3   OH226226   4.135   5.159   1.491 -0.1050  1.3138  0.9686
 3520TIP3    H126227   4.223   5.158   1.531  0.4710 -0.0587 -0.2393
 3520TIP3    H226228   4.148   5.120   1.405 -2.0164  0.5348  0.9916
 3521TIP3   OH226229   0.133   0.128   7.670  0.2329 -0.2425  0.8197
 3521TIP3    H126230   0.174   0.044   7.648  0.9044  0.3890 -0.4574
 3521TIP3    H226231   0.084   0.151   7.591  0.7050  0.9474  0.8567
 3522TIP3   OH226232   3.640   6.275   6.535  0.0531  0.0014 -0.7299
 3522TIP3    H126233   3.676   6.240   6.617  2.5020 -0.2009 -1.7921
 3522TIP3    H226234   3.598   6.357   6.560 -0.3670 -0.6535  0.8875
 3523TIP3   OH226235   1.993   2.343   2.261  0.5016  0.6178  0.3955
 3523TIP3    H126236   1.932   2.416   2.253 -0.4543 -0.1125  0.9022
 3523TIP3    H226237   2.039   2.359   2.343  0.3708  0.7011  0.4523
 3524TIP3   OH226238   3.477   0.644   1.114  0.0016  0.3637 -0.4235
 3524TIP3    H126239   3.453   0.557   1.147  0.2308 -0.7026 -2.8317
 3524TIP3    H226240   3.564   0.660   1.151 -0.6699  0.3202  1.2867
 3525TIP3   OH226241   3.987   2.327   2.709  0.2188  0.0230 -0.0534
 3525TIP3    H126242   3.927   2.390   2.670 -1.0699 -1.2595 -0.2566
 3525TIP3    H226243   4.063   2.326   2.651 -0.2738  0.4961 -0.7196
 3526TIP3   OH226244   4.498   3.894   0.281 -0.3181 -0.4538 -0.2391
 3526TIP3    H126245   4.561   3.821   0.281  0.3579  0.0998 -1.2965
 3526TIP3    H226246   4.444   3.879   0.359  1.7690 -0.3944  1.3135
 3527TIP3   OH226247   4.059   1.683   2.755  0.4499  0.0811 -0.4032
 3527TIP3    H126248   3.982   1.683   2.812  0.2511 -0.4299 -0.6661
 3527TIP3    H226249   4.079   1.591   2.741  2.5654  0.1362  1.5729
 3528TIP3   OH226250   5.872   0.213   1.882  0.5376  0.6891 -0.4190
 3528TIP3    H126251   5.950   0.176   1.922  0.2053 -1.4907 -1.6338
 3528TIP3    H226252   5.905   0.280   1.822  1.3988  0.3155 -0.3734
 3529TIP3   OH226253   5.365   1.414   7.496 -0.5992 -0.6654 -0.0727
 3529TIP3    H126254   5.439   1.386   7.442  0.1305 -0.1542  0.6194
 3529TIP3    H226255   5.328   1.489   7.449  2.1244  2.0191  1.6305
 3530TIP3   OH226256   5.456   5.241   6.467  0.1159 -0.5515  0.2558
 3530TIP3    H126257   5.394   5.204   6.405  0.5187 -0.8159  0.0063
 3530TIP3    H226258   5.537   5.192   6.453 -0.3329 -2.0518  2.3957
 3531TIP3   OH226259   3.873   1.569   1.062  0.2996  0.2400  0.2350
 3531TIP3    H126260   3.918   1.645   1.026  0.1747 -0.5879 -1.8288
 3531TIP3    H226261   3.780   1.591   1.056  0.2384 -0.2352 -0.8655
 3532TIP3   OH226262   3.634   1.362   6.903 -0.1226  0.1035  0.3278
 3532TIP3    H126263   3.569   1.292   6.902 -0.2989  0.2378 -2.1149
 3532TIP3    H226264   3.603   1.425   6.838  1.0045  1.5691  1.1400
 3533TIP3   OH226265   6.298   0.653   7.211  0.7576 -0.5845 -0.1985
 3533TIP3    H126266   6.383   0.696   7.205  1.3006 -1.3869  1.2111
 3533TIP3    H226267   6.261   0.684   7.294 -0.2065 -0.4514 -0.6690
 3534TIP3   OH226268   5.463   3.716   6.454 -0.4369 -0.1631  0.1635
 3534TIP3    H126269   5.451   3.789   6.394 -0.6475  0.4447  0.9218
 3534TIP3    H226270   5.544   3.674   6.425  0.6009  1.3754  0.7029
 3535TIP3   OH226271   1.965   3.761   7.569  0.3415  1.2465  0.1788
 3535TIP3    H126272   1.896   3.771   7.504  0.3304  2.4009  0.3328
 3535TIP3    H226273   2.040   3.807   7.531  1.8156 -1.8590 -1.0042
 3536TIP3   OH226274   5.908   1.175   7.062 -0.3309  0.1756  0.7646
 3536TIP3    H126275   5.881   1.108   7.000 -0.8389  0.1999  0.9549
 3536TIP3    H226276   5.992   1.207   7.028 -1.3894  1.3833 -0.8856
 3537TIP3   OH226277   0.434   4.912   7.685  0.2485 -0.3507 -0.3080
 3537TIP3    H126278   0.484   4.849   7.633  2.0748 -1.3318  2.3999
 3537TIP3    H226279   0.382   4.858   7.744 -0.6770  0.7297 -0.0941
 3538TIP3   OH226280   4.749   2.662   0.585 -0.4805 -0.8811  0.3435
 3538TIP3    H126281   4.710   2.576   0.597 -0.4192 -0.7141  1.9510
 3538TIP3    H226282   4.810   2.651   0.512  0.4886 -2.5454  1.3359
 3539TIP3   OH226283   4.832   0.243   0.943 -0.3046  0.1883  0.1514
 3539TIP3    H126284   4.793   0.311   0.888 -0.5765  0.7230  0.9933
 3539TIP3    H226285   4.825   0.163   0.891  1.9883  1.1217 -1.8196
 3540TIP3   OH226286   4.690   4.017   7.421  0.3063 -0.4349  0.0239
 3540TIP3    H126287   4.648   4.083   7.477  1.0218 -1.0622  1.3360
 3540TIP3    H226288   4.779   4.010   7.456  0.8153 -0.7371 -1.3112
 3541TIP3   OH226289   5.178   0.410   0.231  0.2088  0.0053 -0.5842
 3541TIP3    H126290   5.232   0.365   0.295 -0.8074  0.5589  0.7041
 3541TIP3    H226291   5.238   0.469   0.185  1.1737 -1.2512 -0.9918
 3542TIP3   OH226292   0.249   3.109   0.915  0.4474  0.0006  0.1751
 3542TIP3    H126293   0.337   3.114   0.952  0.2913 -0.4926  0.6137
 3542TIP3    H226294   0.195   3.071   0.984 -0.2870  1.0309  0.2060
 3543TIP3   OH226295   4.444   4.412   7.343  0.2294 -0.3019  0.4509
 3543TIP3    H126296   4.365   4.360   7.355 -0.5353  0.2711 -1.6927
 3543TIP3    H226297   4.510   4.369   7.398 -1.1069 -1.8036  0.9484
 3544TIP3   OH226298   1.158   0.184   2.514  0.6242  0.0883  0.1133
 3544TIP3    H126299   1.216   0.116   2.480 -0.5231 -1.8770  1.9343
 3544TIP3    H226300   1.084   0.138   2.551 -1.3039  2.4578 -0.4915
 3545TIP3   OH226301   0.183   6.249   1.805  0.2696 -0.0387 -0.4894
 3545TIP3    H126302   0.209   6.173   1.858  1.7008 -0.5634 -1.8609
 3545TIP3    H226303   0.231   6.238   1.723 -1.7877  0.8052 -1.8839
 3546TIP3   OH226304   6.202   2.345   1.227 -0.0961  0.4276 -0.1711
 3546TIP3    H126305   6.148   2.419   1.256 -0.0042  0.0301  1.0723
 3546TIP3    H226306   6.159   2.268   1.265  0.6463 -0.0101 -0.2076
 3547TIP3   OH226307   0.578   3.884   6.612  0.1216 -0.0833 -0.6607
 3547TIP3    H126308   0.496   3.895   6.564  0.7391  0.9360 -1.5129
 3547TIP3    H226309   0.565   3.805   6.664 -1.3636  0.0119 -0.8600
 3548TIP3   OH226310   2.740   1.260   2.660  0.3448  0.0047  0.4630
 3548TIP3    H126311   2.651   1.260   2.695 -0.6580 -2.5472 -1.7417
 3548TIP3    H226312   2.781   1.182   2.696  1.6045  0.9151  1.1045
 3549TIP3   OH226313   1.950   4.515   2.431 -0.0877  0.5834  0.1844
 3549TIP3    H126314   1.904   4.576   2.489  0.1693  0.6736  0.2906
 3549TIP3    H226315   1.881   4.455   2.401  0.1746 -1.0656  2.5973
 3550TIP3   OH226316   1.763   2.665   5.848  0.0239  0.5330 -0.1234
 3550TIP3    H126317   1.695   2.724   5.882 -0.4493  0.5152 -1.0100
 3550TIP3    H226318   1.845   2.712   5.862  0.0089 -0.0029  2.2096
 3551TIP3   OH226319   2.491   4.110   1.590 -0.1015 -0.1906  0.2617
 3551TIP3    H126320   2.527   4.142   1.672  0.4190  0.7539 -0.3122
 3551TIP3    H226321   2.459   4.188   1.545  1.8459 -0.2891 -1.4968
 3552TIP3   OH226322   4.763   2.682   6.923 -0.3734  0.7227  0.2537
 3552TIP3    H126323   4.805   2.684   6.837  1.4776 -0.1173  1.0823
 3552TIP3    H226324   4.833   2.659   6.984 -1.7220  0.8586  1.9520
 3553TIP3   OH226325   3.288   5.809   7.309  0.2827 -0.4728 -0.2739
 3553TIP3    H126326   3.199   5.785   7.335 -0.2613  0.8721 -0.8227
 3553TIP3    H226327   3.307   5.887   7.361  0.7297 -0.1366 -0.9403
 3554TIP3   OH226328   6.274   5.277   2.522  0.2249  0.4777 -0.5820
 3554TIP3    H126329   6.226   5.295   2.603 -1.5092  1.1201 -1.6934
 3554TIP3    H226330   6.358   5.323   2.532 -0.8235  2.3597 -0.0056
 3555TIP3   OH226331   0.692   2.628   6.020 -0.2966 -0.0322  0.2872
 3555TIP3    H126332   0.653   2.549   6.057 -1.9900  0.2150 -0.8805
 3555TIP3    H226333   0.622   2.669   5.970  0.9525  1.4658 -0.3300
 3556TIP3   OH226334   5.682   5.071   2.638 -0.5010  0.0727  0.0304
 3556TIP3    H126335   5.683   5.105   2.549  0.8186  0.3467  0.1329
 3556TIP3    H226336   5.703   5.147   2.693 -2.7011  0.2496  0.7371
 3557TIP3   OH226337   0.291   2.221   0.574  0.8916  0.3909  0.3760
 3557TIP3    H126338   0.224   2.156   0.598  0.3202  0.4860 -0.9111
 3557TIP3    H226339   0.282   2.290   0.640 -1.9227  1.5422 -1.0254
 3558TIP3   OH226340   5.327   1.765   5.963  0.0560 -0.4580  0.1079
 3558TIP3    H126341   5.354   1.740   5.875  0.1381  1.6792 -0.5165
 3558TIP3    H226342   5.244   1.812   5.951 -0.5356 -1.1247  1.3115
 3559TIP3   OH226343   0.995   4.970   0.624 -0.1291 -0.1208  0.3582
 3559TIP3    H126344   0.950   5.036   0.571 -1.0810 -0.3577  0.8529
 3559TIP3    H226345   0.930   4.944   0.689 -0.0178 -2.0816 -0.2726
 3560TIP3   OH226346   1.686   3.007   7.634 -0.2814  0.7022  0.3188
 3560TIP3    H126347   1.698   3.100   7.614  2.0987  0.5096  0.5606
 3560TIP3    H226348   1.721   2.996   7.722 -0.1459 -0.5010  0.1369
 3561TIP3   OH226349   5.917   6.072   7.756 -0.1849 -0.0346 -0.4919
 3561TIP3    H126350   5.856   6.000   7.773  0.6866 -1.6408 -3.4288
 3561TIP3    H226351   5.954   6.094   7.842 -2.7853 -0.8691  0.9599
 3562TIP3   OH226352   0.958   3.625   1.299  0.5482  0.0949 -0.5320
 3562TIP3    H126353   1.002   3.606   1.382 -0.1232  2.8930  0.6127
 3562TIP3    H226354   0.876   3.668   1.325  0.8692  2.1947 -2.5789
 3563TIP3   OH226355   3.232   1.388   1.045  0.3564  0.4137 -0.1983
 3563TIP3    H126356   3.297   1.419   1.109  1.4583 -1.6695 -0.2349
 3563TIP3    H226357   3.247   1.442   0.967 -0.1445  2.1093  0.8062
 3564TIP3   OH226358   1.712   4.841   7.413  0.4205  0.5199 -0.5796
 3564TIP3    H126359   1.706   4.782   7.337  1.4025  0.0589 -0.3118
 3564TIP3    H226360   1.806   4.851   7.428  0.2348  0.6611  0.5361
 3565TIP3   OH226361   1.544   2.665   6.678  0.0342 -0.3298  0.3451
 3565TIP3    H126362   1.535   2.574   6.647 -0.2220  0.0710 -0.8077
 3565TIP3    H226363   1.520   2.718   6.603  1.8917  0.7292  0.4289
 3566TIP3   OH226364   2.608   5.813   0.744  0.2879 -0.0918  0.3395
 3566TIP3    H126365   2.649   5.727   0.751  0.9017 -0.0584 -1.9701
 3566TIP3    H226366   2.586   5.822   0.651 -1.5675  1.4553  0.8390
 3567TIP3   OH226367   3.726   0.783   6.837 -0.0726  0.1356  0.7912
 3567TIP3    H126368   3.792   0.769   6.905  1.8908  2.1648 -0.5739
 3567TIP3    H226369   3.699   0.874   6.847 -0.0378  0.3681 -0.8885
 3568TIP3   OH226370   4.067   2.488   7.459  0.6229  0.1761  0.3866
 3568TIP3    H126371   4.140   2.441   7.419  1.8827  2.0214  0.3917
 3568TIP3    H226372   4.077   2.578   7.430 -0.5892  0.8517  1.8886
 3569TIP3   OH226373   5.038   2.879   7.680  0.4195 -0.0230  0.4972
 3569TIP3    H126374   5.133   2.870   7.685  0.5280  0.7876  0.0843
 3569TIP3    H226375   5.024   2.946   7.613 -0.4733 -0.6562  0.0338
 3570TIP3   OH226376   2.760   0.213   2.126 -0.4177  0.1164 -0.7343
 3570TIP3    H126377   2.793   0.193   2.214  1.3489 -0.4302 -1.4998
 3570TIP3    H226378   2.665   0.223   2.139 -0.3556 -1.0794  1.0240
 3571TIP3   OH226379   4.199   0.061   7.557  0.4960 -0.2983  0.3754
 3571TIP3    H126380   4.162   0.148   7.571  0.5266 -0.2566  0.2064
 3571TIP3    H226381   4.207   0.054   7.462  2.2717  0.2750  0.4337
 3572TIP3   OH226382   4.704   0.312   7.501  0.0654 -0.1152  0.9661
 3572TIP3    H126383   4.742   0.226   7.485 -0.5375 -0.1538 -0.3536
 3572TIP3    H226384   4.723   0.330   7.593  2.2262 -0.6301  0.6613
 3573TIP3   OH226385   0.218   6.071   6.398 -0.3490  0.1741  0.4502
 3573TIP3    H126386   0.146   6.022   6.359  0.2750 -0.4635  0.0697
 3573TIP3    H226387   0.296   6.034   6.357  0.2226  0.5178  1.2126
 3574TIP3   OH226388   0.639   0.643   7.193  0.2249 -0.5504  0.1754
 3574TIP3    H126389   0.551   0.608   7.210 -0.2322  0.1228 -0.6807
 3574TIP3    H226390   0.624   0.716   7.133  1.5418 -1.5870 -1.5186
 3575TIP3   OH226391   2.442   4.748   2.104 -0.0031  0.2375  0.2178
 3575TIP3    H126392   2.526   4.738   2.061  0.8323 -2.5771  2.1822
 3575TIP3    H226393   2.377   4.726   2.037  1.1527 -2.4136 -0.1666
 3576TIP3   OH226394   4.208   2.918   6.473  0.2992  0.2589  0.6184
 3576TIP3    H126395   4.125   2.877   6.496  0.4634  0.0802  0.8988
 3576TIP3    H226396   4.236   2.870   6.395  1.3771 -1.4448  1.9646
 3577TIP3   OH226397   2.450   3.895   6.521  0.0059 -0.5776 -0.2496
 3577TIP3    H126398   2.420   3.980   6.489 -2.9466 -0.5518  2.1787
 3577TIP3    H226399   2.528   3.876   6.468 -0.6137  2.4635 -2.5329
 3578TIP3   OH226400   1.276   1.704   1.417  0.0110  1.3584  0.0579
 3578TIP3    H126401   1.308   1.701   1.326  0.3091  2.5778  0.1071
 3578TIP3    H226402   1.180   1.705   1.408  0.0164  0.5818 -0.1965
 3579TIP3   OH226403   2.505   2.780   1.253 -0.2962 -0.1492  0.0751
 3579TIP3    H126404   2.590   2.824   1.251 -1.7766  2.8881 -0.1063
 3579TIP3    H226405   2.518   2.707   1.313  2.5406 -0.0883 -0.3005
 3580TIP3   OH226406   0.438   0.715   1.298  0.4739 -0.2813 -0.1171
 3580TIP3    H126407   0.382   0.654   1.348  0.5826 -0.8124 -0.6285
 3580TIP3    H226408   0.450   0.789   1.356  0.1285 -0.6415  0.4278
 3581TIP3   OH226409   3.837   4.994   6.391 -0.1491 -0.3566  0.5036
 3581TIP3    H126410   3.798   4.907   6.392 -3.8841  1.1032  0.1612
 3581TIP3    H226411   3.825   5.025   6.301  0.7450  0.6681  0.7115
 3582TIP3   OH226412   5.884   5.592   0.709 -0.4064  0.1043  0.2178
 3582TIP3    H126413   5.955   5.546   0.755 -0.4091 -2.2291 -1.8934
 3582TIP3    H226414   5.928   5.660   0.659  0.2720 -0.7826 -0.4235
 3583TIP3   OH226415   5.160   1.975   7.544  0.1634 -0.1889 -0.4561
 3583TIP3    H126416   5.246   1.992   7.505  0.2400 -0.6163 -0.4774
 3583TIP3    H226417   5.112   1.927   7.476  1.2973 -3.6578  0.9624
 3584TIP3   OH226418   5.339   1.271   1.351 -0.3157  0.1762 -0.2438
 3584TIP3    H126419   5.287   1.197   1.320 -2.3205  1.4694 -0.2087
 3584TIP3    H226420   5.422   1.233   1.379 -0.0270 -1.6313 -3.1154
 3585TIP3   OH226421   3.254   2.972   0.367  0.1021  0.3067 -0.4959
 3585TIP3    H126422   3.282   2.883   0.349  2.6367  1.3541 -2.4166
 3585TIP3    H226423   3.254   2.979   0.462  2.9933 -0.8986 -0.3041
 3586TIP3   OH226424   5.091   0.257   0.709  0.3461  0.2640  0.4427
 3586TIP3    H126425   5.183   0.228   0.709 -0.0108 -0.9522  0.4746
 3586TIP3    H226426   5.084   0.315   0.784  1.6409  2.3227 -0.9177
 3587TIP3   OH226427   3.782   4.931   1.691 -0.1885 -0.0762  0.0696
 3587TIP3    H126428   3.714   4.962   1.632  1.4123 -0.7651 -2.2718
 3587TIP3    H226429   3.762   4.973   1.775 -1.7253  2.1207 -1.2991
 3588TIP3   OH226430   1.944   5.629   1.729  0.3882  0.5357  0.3539
 3588TIP3    H126431   2.004   5.695   1.764  1.4846  0.8648 -1.9957
 3588TIP3    H226432   2.000   5.556   1.703 -0.6895 -0.9049  1.7749
 3589TIP3   OH226433   3.371   6.260   2.266 -0.5864 -0.6807  0.6337
 3589TIP3    H126434   3.301   6.256   2.331 -1.2188 -0.5062 -0.0164
 3589TIP3    H226435   3.393   6.354   2.260 -0.2094 -0.7478  0.9213
 3590TIP3   OH226436   0.594   1.068   1.705 -0.5444 -0.4581  0.2544
 3590TIP3    H126437   0.685   1.097   1.696 -0.8980  0.4891 -0.4982
 3590TIP3    H226438   0.582   1.058   1.800 -0.6816  3.1028  0.7795
 3591TIP3   OH226439   0.330   0.312   6.688 -0.4743 -0.7810 -0.1986
 3591TIP3    H126440   0.278   0.353   6.758  0.1656 -1.5675  0.7645
 3591TIP3    H226441   0.265   0.285   6.623 -0.8572  3.3014 -1.8278
 3592TIP3   OH226442   3.066   2.139   1.835 -0.4797 -0.3916  0.2699
 3592TIP3    H126443   3.136   2.111   1.776  0.0849  0.8608  0.3072
 3592TIP3    H226444   3.087   2.231   1.855 -2.7269  0.3662 -0.5644
 3593TIP3   OH226445   4.546   0.119   7.209 -0.3525 -0.3248  0.4710
 3593TIP3    H126446   4.611   0.129   7.139 -0.4100 -2.9126 -0.0748
 3593TIP3    H226447   4.486   0.192   7.196 -0.2501 -0.5911 -2.1007
 3594TIP3   OH226448   1.204   0.452   1.235  0.1785 -0.5632  0.0733
 3594TIP3    H126449   1.197   0.545   1.212  1.2639 -0.3447  0.5779
 3594TIP3    H226450   1.283   0.446   1.288  0.2859 -1.8301 -0.2003
 3595TIP3   OH226451   1.378   0.126   6.503 -0.7056 -0.6506  0.7774
 3595TIP3    H126452   1.319   0.139   6.428 -0.8273 -0.0531  0.9669
 3595TIP3    H226453   1.321   0.090   6.572 -0.7853 -0.3961  0.8495
 3596TIP3   OH226454   5.367   4.801   1.207  0.4751  0.1496  0.0664
 3596TIP3    H126455   5.275   4.822   1.189  0.6362  0.3247 -0.5469
 3596TIP3    H226456   5.404   4.882   1.240  0.0625 -0.2891  1.7223
 3597TIP3   OH226457   1.669   3.167   0.612 -0.1109  0.0965 -0.6057
 3597TIP3    H126458   1.631   3.092   0.568 -0.9266  1.3259 -2.0950
 3597TIP3    H226459   1.616   3.178   0.691  0.2542 -1.0854 -0.1816
 3598TIP3   OH226460   4.332   0.668   0.416  0.1001 -0.4491 -0.1664
 3598TIP3    H126461   4.383   0.702   0.342  1.3744 -0.7897  0.5125
 3598TIP3    H226462   4.362   0.578   0.426 -0.9790 -0.7967 -0.0115
 3599TIP3   OH226463   1.391   3.935   1.103 -0.1440  0.7668  0.1753
 3599TIP3    H126464   1.409   3.854   1.055 -0.0192  0.0844  1.3335
 3599TIP3    H226465   1.404   4.004   1.039 -0.1927 -0.1252 -0.8264
 3600TIP3   OH226466   4.327   2.386   0.268  0.2459 -0.6600  0.2725
 3600TIP3    H126467   4.234   2.365   0.268  0.2914 -0.8682  0.4625
 3600TIP3    H226468   4.357   2.361   0.181  0.5062 -2.3508  0.8129
 3601TIP3   OH226469   5.203   4.152   1.696  0.6393 -0.9407  0.3207
 3601TIP3    H126470   5.220   4.138   1.789 -0.0955 -3.0675  0.2058
 3601TIP3    H226471   5.275   4.106   1.652  1.9107  1.4176 -0.2356
 3602TIP3   OH226472   1.793   2.631   1.101 -0.4169  0.4155 -0.1724
 3602TIP3    H126473   1.867   2.598   1.152  0.0938  0.2644 -1.0015
 3602TIP3    H226474   1.721   2.634   1.164  0.5479  1.6057  0.9308
 3603TIP3   OH226475   5.592   3.827   0.804 -0.7331 -0.3574  0.2650
 3603TIP3    H126476   5.617   3.832   0.897 -1.0783  1.3409  0.2837
 3603TIP3    H226477   5.589   3.733   0.786 -0.0566 -0.7105  1.8103
 3604TIP3   OH226478   3.114   4.493   7.050  0.0177 -0.1230  0.0807
 3604TIP3    H126479   3.117   4.501   7.145  0.1310 -1.1798  0.1835
 3604TIP3    H226480   3.175   4.559   7.018  2.4834 -1.8706  0.9018
 3605TIP3   OH226481   5.904   4.911   7.712  0.4142  0.1036 -0.6080
 3605TIP3    H126482   5.815   4.929   7.740 -0.2183 -2.0606 -1.0541
 3605TIP3    H226483   5.936   4.994   7.677 -1.1050  1.1235  0.3409
 3606TIP3   OH226484   2.818   5.354   0.899 -1.0766 -0.4335 -0.5870
 3606TIP3    H126485   2.900   5.359   0.948 -0.8891  0.2355 -0.9559
 3606TIP3    H226486   2.788   5.264   0.913  1.5692 -1.9494 -3.4003
 3607TIP3   OH226487   5.905   4.719   7.208 -0.3198  0.1575  0.6843
 3607TIP3    H126488   5.959   4.797   7.217 -1.4132  0.7824  2.5591
 3607TIP3    H226489   5.876   4.719   7.117 -0.0149  1.7459  0.5736
 3608TIP3   OH226490   3.103   1.135   7.169  0.1224 -0.2120 -0.0333
 3608TIP3    H126491   3.019   1.160   7.131  0.6695  0.6161 -0.7374
 3608TIP3    H226492   3.162   1.206   7.146  0.7412 -0.1959  1.4827
 3609TIP3   OH226493   5.407   2.941   1.516  0.0415 -0.1773 -0.2631
 3609TIP3    H126494   5.320   2.977   1.532  0.0298 -0.3652  0.1087
 3609TIP3    H226495   5.421   2.951   1.422 -0.4811 -0.3625 -0.3596
 3610TIP3   OH226496   0.797   0.804   1.568  0.6010  0.5267  0.2839
 3610TIP3    H126497   0.751   0.789   1.650 -0.2020 -1.0331 -0.4189
 3610TIP3    H226498   0.822   0.896   1.571 -1.2313  1.0256  1.3575
 3611TIP3   OH226499   5.172   2.591   0.721  0.3302  0.0827 -0.2949
 3611TIP3    H126500   5.097   2.559   0.672  1.3170 -1.1111 -1.1016
 3611TIP3    H226501   5.162   2.686   0.722 -2.1743 -0.1392  1.3038
 3612TIP3   OH226502   6.198   4.883   7.345 -0.4085  0.1965 -0.3034
 3612TIP3    H126503   6.291   4.879   7.320  0.0904  3.4991  0.6045
 3612TIP3    H226504   6.177   4.793   7.371  2.1681 -0.9075 -1.6571
 3613TIP3   OH226505   1.805   6.156   1.102 -0.1796  0.5281 -0.3386
 3613TIP3    H126506   1.868   6.092   1.070  0.0605  1.1358 -1.0860
 3613TIP3    H226507   1.858   6.230   1.130 -0.4298  0.2796  0.8598
 3614TIP3   OH226508   3.433   4.145   6.616 -0.6061  0.6268 -0.3647
 3614TIP3    H126509   3.363   4.208   6.632 -0.7973  0.8370 -1.9184
 3614TIP3    H226510   3.433   4.132   6.521  1.3205  0.4799 -0.3856
 3615TIP3   OH226511   5.404   2.627   0.106 -0.3163  0.4591  0.0751
 3615TIP3    H126512   5.366   2.607   0.020 -0.0877  2.2502 -0.4795
 3615TIP3    H226513   5.494   2.593   0.100 -0.9301 -1.3539  0.4236
 3616TIP3   OH226514   4.883   6.034   1.400 -0.2353  0.2070 -0.2013
 3616TIP3    H126515   4.976   6.022   1.382  0.2714 -1.5320  2.8625
 3616TIP3    H226516   4.843   6.042   1.313  2.4967 -1.1318 -1.7254
 3617TIP3   OH226517   0.156   5.329   0.395 -0.3310 -0.1228 -0.2746
 3617TIP3    H126518   0.128   5.239   0.413 -2.9266  0.3930 -1.2923
 3617TIP3    H226519   0.216   5.322   0.321  1.4658 -1.1744  1.1889
 3618TIP3   OH226520   3.497   2.194   2.733 -0.1305 -0.4751  0.1134
 3618TIP3    H126521   3.538   2.129   2.676  0.4460 -2.1783  2.3027
 3618TIP3    H226522   3.571   2.234   2.779 -0.5141  1.4952 -0.8994
 3619TIP3   OH226523   1.059   0.520   6.458 -0.4198  0.1927  0.3410
 3619TIP3    H126524   0.963   0.530   6.456 -0.4060  0.8613  1.7551
 3619TIP3    H226525   1.090   0.597   6.506  0.8916  0.2644 -0.5651
 3620TIP3   OH226526   0.580   2.167   7.496  0.5075  0.0215  0.0888
 3620TIP3    H126527   0.514   2.217   7.449 -1.4778 -1.6526  0.9474
 3620TIP3    H226528   0.541   2.147   7.581  1.7256 -1.8059  0.2967
 3621TIP3   OH226529   2.257   1.585   2.618  0.3738 -0.2883  0.0036
 3621TIP3    H126530   2.234   1.600   2.526  0.0155 -1.3169 -0.0896
 3621TIP3    H226531   2.247   1.490   2.630 -1.2971  0.0389  1.5653
 3622TIP3   OH226532   0.839   3.543   7.292 -0.3746  0.7040  0.5388
 3622TIP3    H126533   0.897   3.560   7.366  0.3464 -1.6396  0.5890
 3622TIP3    H226534   0.860   3.453   7.265 -0.7414  1.3956 -2.4073
 3623TIP3   OH226535   2.771   0.420   0.370  1.1028 -0.7229  0.1193
 3623TIP3    H126536   2.688   0.429   0.417 -0.0687 -1.3559 -1.7423
 3623TIP3    H226537   2.807   0.336   0.400  1.1850 -0.3608  1.0639
 3624TIP3   OH226538   3.646   0.254   5.883 -0.1540  0.1370  0.6009
 3624TIP3    H126539   3.695   0.285   5.959  3.0175  0.9382 -1.5433
 3624TIP3    H226540   3.652   0.159   5.887 -2.3406 -0.0095  2.6125
 3625TIP3   OH226541   2.739   2.334   1.535 -0.3781 -0.4917 -0.6604
 3625TIP3    H126542   2.765   2.375   1.618  0.1147  0.5693 -1.3214
 3625TIP3    H226543   2.759   2.400   1.468  2.2888 -2.4874 -2.0308
 3626TIP3   OH226544   2.106   0.326   0.475  0.6563  0.0609 -0.4881
 3626TIP3    H126545   2.118   0.413   0.438 -0.6659  0.4200 -0.1369
 3626TIP3    H226546   2.112   0.339   0.570  1.1904 -0.3610 -0.4597
 3627TIP3   OH226547   1.178   4.878   2.862  0.3163  0.6538 -0.2286
 3627TIP3    H126548   1.201   4.901   2.952 -1.0903  0.5732  0.1666
 3627TIP3    H226549   1.127   4.797   2.870  2.0981 -0.6594 -1.3013
 3628TIP3   OH226550   5.403   4.333   6.554 -0.1244 -0.1160  0.5778
 3628TIP3    H126551   5.310   4.308   6.548  0.5547 -2.6391 -0.8900
 3628TIP3    H226552   5.450   4.250   6.547  2.2642  0.9741  2.4395
 3629TIP3   OH226553   4.509   4.396   1.849 -0.4534 -0.0753 -0.3700
 3629TIP3    H126554   4.502   4.320   1.792 -1.1690 -0.3940  0.1382
 3629TIP3    H226555   4.430   4.394   1.902 -0.0468  0.5154  0.2720
 3630TIP3   OH226556   0.073   3.431   6.893 -0.5065  0.0175  0.0574
 3630TIP3    H126557   0.136   3.480   6.946  0.3827 -2.1274  1.1462
 3630TIP3    H226558   0.063   3.483   6.813  3.1849  0.2229 -0.4676
 3631TIP3   OH226559   1.316   2.347   0.855  0.3062  0.0895 -0.3492
 3631TIP3    H126560   1.305   2.353   0.950 -2.0051  0.9545 -0.6363
 3631TIP3    H226561   1.273   2.265   0.831 -0.3253  0.5528 -0.8135
 3632TIP3   OH226562   3.287   3.010   0.639  0.0844 -0.0089 -0.6636
 3632TIP3    H126563   3.308   3.063   0.715 -1.2080  3.2488 -2.3975
 3632TIP3    H226564   3.207   2.964   0.662 -0.2716  0.9149 -0.0513
 3633TIP3   OH226565   3.065   2.128   0.528 -0.1593 -0.3446 -0.4396
 3633TIP3    H126566   2.971   2.135   0.514  0.2649  0.9208 -3.1040
 3633TIP3    H226567   3.104   2.177   0.457  2.5251  1.6023  2.1445
 3634TIP3   OH226568   0.801   0.605   2.904 -0.2356  0.2912 -0.0009
 3634TIP3    H126569   0.772   0.538   2.842 -0.0573 -0.4735  0.7130
 3634TIP3    H226570   0.727   0.665   2.913  0.8261  2.3722 -3.4628
 3635TIP3   OH226571   5.391   4.641   5.975  0.1213 -0.2487 -0.0953
 3635TIP3    H126572   5.445   4.719   5.990  1.1153 -1.1258  1.1947
 3635TIP3    H226573   5.339   4.632   6.056 -1.2227 -0.0042 -0.9030
 3636TIP3   OH226574   3.650   3.354   6.428  0.5354  0.0141  0.1890
 3636TIP3    H126575   3.636   3.328   6.519 -0.9700  0.0069 -0.0175
 3636TIP3    H226576   3.611   3.442   6.423  0.9389  0.1635 -0.3683
 3637TIP3   OH226577   4.212   3.204   1.942  0.2632  0.3266  0.0529
 3637TIP3    H126578   4.303   3.226   1.962  0.6688 -2.1975  1.5434
 3637TIP3    H226579   4.193   3.130   2.001 -2.0331 -0.6627 -1.7952
 3638TIP3   OH226580   2.616   4.826   6.249  0.7198 -0.1121 -0.2417
 3638TIP3    H126581   2.675   4.786   6.185  1.1629  0.2722 -0.0799
 3638TIP3    H226582   2.602   4.915   6.215 -1.6724 -0.9129 -1.5555
 3639TIP3   OH226583   0.931   0.037   0.908 -0.0554 -0.3092 -0.5963
 3639TIP3    H126584   1.010  -0.015   0.918  0.0819 -0.2044 -1.0798
 3639TIP3    H226585   0.963   0.125   0.889 -0.2744 -0.5524 -2.2128
 3640TIP3   OH226586   4.980   0.326   0.474 -0.1012 -0.0660 -0.3640
 3640TIP3    H126587   5.020   0.245   0.444 -0.3297  0.4337 -2.0965
 3640TIP3    H226588   5.009   0.334   0.565  2.0546 -0.7676 -0.9278
 3641TIP3   OH226589   1.823   3.268   2.288 -0.0475 -0.1297 -0.0741
 3641TIP3    H126590   1.812   3.209   2.363 -0.4271 -1.6523 -1.2643
 3641TIP3    H226591   1.782   3.350   2.315 -0.2054 -0.6642  1.3701
 3642TIP3   OH226592   4.041   1.239   2.455 -0.2702  0.6018  0.3752
 3642TIP3    H126593   3.969   1.243   2.518  1.5682  1.5885  2.5954
 3642TIP3    H226594   4.103   1.177   2.494 -0.7778 -2.0466 -2.5957
 3643TIP3   OH226595   3.608   5.754   6.234  0.5265  1.0399 -0.3791
 3643TIP3    H126596   3.624   5.809   6.311 -0.6487  2.3721 -1.0438
 3643TIP3    H226597   3.632   5.810   6.160 -1.3482  0.9318 -1.1064
 3644TIP3   OH226598   4.445   3.954   7.750 -0.1523  0.0409 -0.4823
 3644TIP3    H126599   4.502   4.030   7.748  0.8141 -0.6662 -0.6471
 3644TIP3    H226600   4.447   3.924   7.841  0.7208 -0.6911 -0.7312
 3645TIP3   OH226601   0.287   5.436   6.016 -0.2726  0.2817  0.3736
 3645TIP3    H126602   0.370   5.444   5.968  1.4724 -0.0601  3.0959
 3645TIP3    H226603   0.229   5.499   5.973  1.8789  1.6704 -0.7206
 3646TIP3   OH226604   1.506   2.626   6.954 -0.2720  0.1220 -0.2343
 3646TIP3    H126605   1.530   2.636   6.862  0.6359 -1.6980 -0.2593
 3646TIP3    H226606   1.577   2.572   6.990 -0.8345  0.4615  1.4297
 3647TIP3   OH226607   5.114   0.345   1.768  0.2699 -0.1948 -0.4834
 3647TIP3    H126608   5.114   0.298   1.851 -0.1485 -1.5936 -1.2294
 3647TIP3    H226609   5.147   0.432   1.789 -0.0330 -0.4504  1.1692
 3648TIP3   OH226610   4.573   0.816   6.672 -0.5799 -0.3834 -0.1082
 3648TIP3    H126611   4.563   0.817   6.577  0.3429 -0.7147 -0.2218
 3648TIP3    H226612   4.646   0.755   6.688 -1.4114 -1.1704  0.8831
 3649TIP3   OH226613   0.546   4.311   2.452 -0.3444  0.2754  0.1725
 3649TIP3    H126614   0.608   4.372   2.492 -0.4482  0.6290 -0.2030
 3649TIP3    H226615   0.491   4.282   2.525  0.1266  0.1231  0.4690
 3650TIP3   OH226616   2.664   5.700   1.271  0.2975  0.2859  0.0231
 3650TIP3    H126617   2.629   5.711   1.183 -3.3305 -1.0178  1.0923
 3650TIP3    H226618   2.638   5.780   1.317 -0.3933 -0.2371  0.5705
 3651TIP3   OH226619   5.502   4.742   7.525  0.2474 -0.4318 -0.3627
 3651TIP3    H126620   5.412   4.771   7.540  0.2582 -0.7668  0.4072
 3651TIP3    H226621   5.528   4.701   7.607 -0.1962 -3.7812 -1.6931
 3652TIP3   OH226622   4.948   2.904   7.171  0.1547  0.2081 -0.3953
 3652TIP3    H126623   4.903   2.834   7.220  1.8406 -0.4229  0.3317
 3652TIP3    H226624   5.041   2.887   7.186  0.6306  1.9151 -1.2286
 3653TIP3   OH226625   4.221   2.095   0.407 -0.0281 -0.2713  0.3993
 3653TIP3    H126626   4.132   2.130   0.394 -0.3264 -1.2440 -0.2755
 3653TIP3    H226627   4.264   2.160   0.462 -0.6953  0.9488 -0.4724
 3654TIP3   OH226628   0.565   1.575   7.416  0.6874  0.4262  0.0365
 3654TIP3    H126629   0.534   1.525   7.492  0.1845  0.3015 -0.2486
 3654TIP3    H226630   0.631   1.633   7.452 -0.3191  1.1480  0.7847
 3655TIP3   OH226631   0.274   0.828   1.882 -0.1807 -0.1462 -0.7267
 3655TIP3    H126632   0.318   0.904   1.921  1.4117 -1.4133  0.0244
 3655TIP3    H226633   0.229   0.864   1.805  0.5416  1.5509 -0.4010
 3656TIP3   OH226634   5.096   4.850   1.194  0.0011  0.5387  0.3190
 3656TIP3    H126635   5.019   4.880   1.146  0.2168 -0.6636 -0.8518
 3656TIP3    H226636   5.075   4.865   1.286 -0.9022  1.8493 -0.0832
 3657TIP3   OH226637   5.856   4.690   7.505  0.2197  0.1524  0.4985
 3657TIP3    H126638   5.857   4.759   7.571  0.0118  1.8653 -1.2176
 3657TIP3    H226639   5.824   4.732   7.426 -2.8204 -2.5650  0.0219
 3658TIP3   OH226640   3.385   1.604   0.932  0.6132 -0.7306  0.7560
 3658TIP3    H126641   3.318   1.580   0.868  0.6520 -0.4501  0.6109
 3658TIP3    H226642   3.365   1.695   0.954  0.4021 -0.9215  1.3845
 3659TIP3   OH226643   5.214   5.078   1.895  0.0753  0.1496  0.1039
 3659TIP3    H126644   5.237   5.163   1.933 -0.6928  0.1336  0.6285
 3659TIP3    H226645   5.121   5.085   1.876  0.2582 -0.1750 -0.9431
 3660TIP3   OH226646   5.120   4.682   7.662 -0.3322 -0.0205 -0.3142
 3660TIP3    H126647   5.132   4.630   7.582  2.2721  2.2139 -1.5694
 3660TIP3    H226648   5.043   4.735   7.645  0.7118  1.0938 -1.8510
 3661TIP3   OH226649   1.170   5.056   0.439  0.8459 -0.3214 -0.3294
 3661TIP3    H126650   1.171   5.144   0.478  1.3778 -0.7495  0.6611
 3661TIP3    H226651   1.114   5.005   0.497 -1.2099 -0.1637 -2.0581
 3662TIP3   OH226652   5.783   5.608   2.211 -0.0364  0.2857 -0.1132
 3662TIP3    H126653   5.748   5.521   2.229  1.5808 -0.9553 -2.5138
 3662TIP3    H226654   5.774   5.655   2.294 -0.9998 -2.1235  1.2384
 3663TIP3   OH226655   5.509   1.961   7.509  0.0111 -0.0157 -0.2674
 3663TIP3    H126656   5.602   1.964   7.533 -0.2866 -0.4861  1.0142
 3663TIP3    H226657   5.476   1.882   7.552 -0.4349 -1.3142 -2.8368
 3664TIP3   OH226658   3.108   2.637   1.619  0.0711  0.4638  0.5358
 3664TIP3    H126659   3.030   2.651   1.566  0.3292 -0.6857 -0.2036
 3664TIP3    H226660   3.177   2.685   1.572 -0.0109  0.7399  0.6965
 3665TIP3   OH226661   4.215   0.184   1.667  0.0294 -0.4156 -0.5278
 3665TIP3    H126662   4.179   0.098   1.647 -1.3369 -0.0206  0.1338
 3665TIP3    H226663   4.224   0.185   1.762  1.5173 -0.3706 -0.6426
 3666TIP3   OH226664   0.656   0.705   6.276  0.7074 -0.3199 -0.1071
 3666TIP3    H126665   0.641   0.724   6.183 -1.7053  1.4498  0.5400
 3666TIP3    H226666   0.735   0.755   6.298 -0.1824  1.3879 -0.6484
 3667TIP3   OH226667   0.114   5.365   1.274  0.3811  0.0519 -0.2410
 3667TIP3    H126668   0.183   5.328   1.219  0.4127  0.9728 -0.8329
 3667TIP3    H226669   0.039   5.307   1.261  0.8523 -0.6072 -0.0624
 3668TIP3   OH226670   5.154   1.070   1.298 -0.6139  0.4460 -0.2912
 3668TIP3    H126671   5.175   1.044   1.209  2.3772  0.4681  0.3043
 3668TIP3    H226672   5.130   0.989   1.342 -0.3265  0.1467 -0.6805
 3669TIP3   OH226673   0.238   1.976   6.296 -0.0520  0.2722 -0.0072
 3669TIP3    H126674   0.177   2.025   6.240  1.2295  0.2477 -1.5055
 3669TIP3    H226675   0.193   1.894   6.315 -0.3922  0.1315 -1.3268
 3670TIP3   OH226676   3.478   2.863   2.588 -0.1480 -0.0494 -1.0096
 3670TIP3    H126677   3.398   2.816   2.610 -1.0987  2.0217  0.2704
 3670TIP3    H226678   3.549   2.803   2.614 -1.2330 -1.6044 -1.4708
 3671TIP3   OH226679   5.989   5.453   7.402 -0.1254  0.2310 -0.0209
 3671TIP3    H126680   5.899   5.458   7.434  0.0582 -0.8666  0.6819
 3671TIP3    H226681   6.041   5.495   7.470 -0.0957  1.0017 -0.4960
 3672TIP3   OH226682   1.175   3.055   7.550  0.4440  0.2744 -0.4631
 3672TIP3    H126683   1.212   2.985   7.496  0.3427 -1.1892  1.2496
 3672TIP3    H226684   1.252   3.101   7.586  0.5104  1.0796 -1.5789
 3673TIP3   OH226685   3.700   5.652   7.103  0.2871  0.1099 -0.5713
 3673TIP3    H126686   3.791   5.639   7.076  0.1404  0.9045 -1.5029
 3673TIP3    H226687   3.650   5.650   7.021 -0.6693 -1.2667  0.0049
 3674TIP3   OH226688   4.361   1.894   7.143  0.7919  0.3633  0.2824
 3674TIP3    H126689   4.342   1.803   7.121 -1.3899  0.9703 -0.5429
 3674TIP3    H226690   4.396   1.890   7.232  2.5471 -1.4184 -0.4091
 3675TIP3   OH226691   5.273   5.749   0.718  0.1345  0.6487  0.4228
 3675TIP3    H126692   5.235   5.833   0.743 -1.3248 -0.5663  2.5634
 3675TIP3    H226693   5.221   5.720   0.643  0.6010  1.5867 -0.2834
 3676TIP3   OH226694   5.433   1.588   6.696  0.3609  0.0354  0.7356
 3676TIP3    H126695   5.453   1.498   6.722 -2.2036 -0.8856 -0.1591
 3676TIP3    H226696   5.436   1.638   6.777  0.5690 -1.1029  1.4594
 3677TIP3   OH226697   3.210   4.236   6.966 -0.2844 -0.3435 -0.2021
 3677TIP3    H126698   3.301   4.267   6.963  0.3066 -1.9828 -0.9990
 3677TIP3    H226699   3.157   4.315   6.966  1.1294  0.6502 -0.7796
 3678TIP3   OH226700   3.024   5.354   1.546 -0.5162  0.2458  0.3097
 3678TIP3    H126701   3.022   5.353   1.450 -0.9049  1.9891  0.2586
 3678TIP3    H226702   3.071   5.435   1.568  0.2685 -0.5298  1.6080
 3679TIP3   OH226703   5.825   3.544   1.770 -0.0480  0.0586  0.1175
 3679TIP3    H126704   5.859   3.459   1.743 -1.6452 -0.0294 -1.9189
 3679TIP3    H226705   5.897   3.605   1.757  0.5465 -0.7099 -0.2419
 3680TIP3   OH226706   0.930   5.257   5.458  0.0104  0.9282 -0.5405
 3680TIP3    H126707   1.014   5.227   5.495  0.1577  3.0844  1.0586
 3680TIP3    H226708   0.875   5.179   5.460  1.2520  0.0221  0.6535
 3681TIP3   OH226709   0.181   1.025   5.433  0.1572  0.1122  0.7464
 3681TIP3    H126710   0.180   0.942   5.480  0.6057  0.5398  1.5509
 3681TIP3    H226711   0.273   1.050   5.430 -0.0019  0.7482  0.8391
 3682TIP3   OH226712   0.795   2.972   0.542  0.0590  0.6206 -0.4776
 3682TIP3    H126713   0.771   2.898   0.487 -3.4005  0.7662  0.5668
 3682TIP3    H226714   0.831   3.037   0.481  0.1863 -0.7208 -1.8819
 3683TIP3   OH226715   5.618   0.084   1.807 -0.4074 -0.0538  0.5991
 3683TIP3    H126716   5.714   0.087   1.807 -0.2689 -0.8758 -2.1256
 3683TIP3    H226717   5.591   0.155   1.864  1.8602  1.5919 -0.2224
 3684TIP3   OH226718   5.348   5.574   7.330 -0.0091 -0.1650  0.0576
 3684TIP3    H126719   5.357   5.519   7.409  0.7951 -0.2297 -0.0616
 3684TIP3    H226720   5.274   5.631   7.349 -2.2788 -2.6488 -0.6343
 3685TIP3   OH226721   3.134   6.075   2.003 -0.1943 -0.3781 -0.1336
 3685TIP3    H126722   3.051   6.028   1.994 -2.7689  3.8223 -0.8407
 3685TIP3    H226723   3.120   6.135   2.077  0.5459  3.2395 -2.6788
 3686TIP3   OH226724   6.098   0.771   0.763  0.1960 -0.1788 -0.2492
 3686TIP3    H126725   6.033   0.804   0.826  0.7825 -0.4809  0.5401
 3686TIP3    H226726   6.131   0.691   0.804  2.0961  0.7170  0.0726
 3687TIP3   OH226727   2.737   2.235   0.914  1.0707  0.4227 -0.0442
 3687TIP3    H126728   2.761   2.278   0.996 -1.3131  1.3018  0.2669
 3687TIP3    H226729   2.779   2.149   0.919 -1.1693 -0.6753  3.4261
 3688TIP3   OH226730   1.512   4.447   6.048 -0.8061 -0.1674 -0.0155
 3688TIP3    H126731   1.497   4.472   5.956  0.2663  0.3128 -0.0708
 3688TIP3    H226732   1.498   4.528   6.097 -2.4579 -0.6542  0.3985
 3689TIP3   OH226733   4.274   5.321   0.646 -0.8759  0.5443  0.6271
 3689TIP3    H126734   4.370   5.322   0.638 -0.8820 -0.3109  0.3681
 3689TIP3    H226735   4.251   5.228   0.645 -1.9344  0.7274 -2.3489
 3690TIP3   OH226736   4.188   2.196   0.843  0.1370 -0.8722 -0.1045
 3690TIP3    H126737   4.253   2.197   0.913 -0.5960 -3.3794  0.6923
 3690TIP3    H226738   4.116   2.144   0.877 -1.7204  0.6133 -1.5103
 3691TIP3   OH226739   4.931   5.451   1.363  0.0406  0.4588  0.6818
 3691TIP3    H126740   5.012   5.411   1.333  0.8055  2.0526  0.5505
 3691TIP3    H226741   4.865   5.420   1.301  0.9093  0.7352 -0.4148
 3692TIP3   OH226742   4.262   0.385   6.892 -0.6014 -0.7569  0.5371
 3692TIP3    H126743   4.180   0.350   6.858 -2.2357  0.5549  2.8160
 3692TIP3    H226744   4.297   0.439   6.821 -0.9701 -2.3941 -0.9544
 3693TIP3   OH226745   4.517   2.715   1.806  0.4390 -0.5133 -0.0520
 3693TIP3    H126746   4.592   2.774   1.815 -0.3572  0.9202 -1.9494
 3693TIP3    H226747   4.442   2.768   1.832 -0.1225 -1.2733 -0.0967
 3694TIP3   OH226748   1.050   3.399   6.293 -0.0819 -0.0739 -0.1249
 3694TIP3    H126749   0.971   3.450   6.275  0.3181  1.0886  1.1622
 3694TIP3    H226750   1.018   3.314   6.324 -0.7631 -0.9734 -3.0171
 3695TIP3   OH226751   4.218   0.556   1.576 -0.1669  0.3516  0.7569
 3695TIP3    H126752   4.220   0.652   1.578 -0.8848  0.3834  0.2325
 3695TIP3    H226753   4.173   0.531   1.657  0.7423  0.4145  1.3018
 3696TIP3   OH226754   5.457   1.018   1.106 -0.0395 -0.8096 -0.3675
 3696TIP3    H126755   5.440   1.043   1.197  1.4128  0.0112 -0.2959
 3696TIP3    H226756   5.501   0.933   1.113 -0.5715 -1.0935 -0.3621
 3697TIP3   OH226757   5.609   1.754   7.124  0.2097 -0.4013  0.2406
 3697TIP3    H126758   5.679   1.720   7.069  0.4630  0.8023 -0.2083
 3697TIP3    H226759   5.654   1.810   7.188 -0.3694  0.8821 -0.4413
 3698TIP3   OH226760   0.896   4.666   7.442  0.2599 -0.0362  0.9919
 3698TIP3    H126761   0.974   4.653   7.388 -0.1827 -1.9858  0.7348
 3698TIP3    H226762   0.929   4.693   7.527  1.0787  1.1740  0.3091
 3699TIP3   OH226763   3.593   0.653   5.574 -0.1920  0.3818 -0.0223
 3699TIP3    H126764   3.685   0.661   5.602 -0.6635 -0.6965  2.0858
 3699TIP3    H226765   3.578   0.558   5.570 -1.2987  0.5423 -0.0101
 3700TIP3   OH226766   1.318   2.728   0.229 -0.1381 -0.7804  0.3857
 3700TIP3    H126767   1.250   2.667   0.254 -1.0654 -0.6566 -1.6001
 3700TIP3    H226768   1.301   2.807   0.280 -1.6034 -0.6991 -0.2004
 3701TIP3   OH226769   0.839   0.423   1.724  0.5589 -0.0971 -0.1811
 3701TIP3    H126770   0.771   0.357   1.737 -1.8516  2.4803  1.5419
 3701TIP3    H226771   0.849   0.465   1.810  0.7166  2.8138 -1.4829
 3702TIP3   OH226772   2.976   5.136   0.277  0.1310  0.0885 -0.3543
 3702TIP3    H126773   3.011   5.077   0.345  0.2705  2.6486  1.9885
 3702TIP3    H226774   2.897   5.173   0.316  0.3819  1.8868 -1.4364
 3703TIP3   OH226775   3.456   6.074   7.038 -0.2763 -1.0202  0.0546
 3703TIP3    H126776   3.368   6.036   7.042 -0.0713 -1.5316 -0.2944
 3703TIP3    H226777   3.513   6.006   7.074 -0.1690 -0.2119  1.4852
 3704TIP3   OH226778   4.698   4.435   0.809  0.5016 -0.4940  0.0362
 3704TIP3    H126779   4.620   4.436   0.864  0.7513 -0.5187  0.3932
 3704TIP3    H226780   4.664   4.436   0.720  0.0596 -1.4286  0.1734
 3705TIP3   OH226781   5.572   1.272   2.094 -0.1465 -0.3847  0.2954
 3705TIP3    H126782   5.522   1.351   2.073  1.6959  0.4075 -1.4082
 3705TIP3    H226783   5.620   1.296   2.174  1.2034  0.6638 -0.7806
 3706TIP3   OH226784   5.373   0.188   0.766 -0.0612 -0.2605  1.0728
 3706TIP3    H126785   5.424   0.116   0.731 -1.9123 -1.2845  0.3216
 3706TIP3    H226786   5.362   0.167   0.859 -2.4331 -2.2086  0.4402
 3707TIP3   OH226787   0.373   5.539   7.682 -0.5292 -0.1369  0.9900
 3707TIP3    H126788   0.406   5.464   7.731  1.0297  0.1925  0.4956
 3707TIP3    H226789   0.401   5.524   7.592 -0.0599  1.0870  0.9080
 3708TIP3   OH226790   0.261   0.193   0.850 -0.0539 -0.0871  0.1240
 3708TIP3    H126791   0.302   0.224   0.930  0.2818 -0.2807  0.0329
 3708TIP3    H226792   0.334   0.160   0.797 -0.4090 -1.1392  0.2730
 3709TIP3   OH226793   2.876   3.904   0.532 -0.3280 -0.2902 -0.2248
 3709TIP3    H126794   2.881   3.993   0.566  1.3449 -0.3945 -0.1197
 3709TIP3    H226795   2.948   3.858   0.576 -0.0842 -1.2326 -1.5619
 3710TIP3   OH226796   4.609   4.926   0.171  0.5015 -0.1040  0.0208
 3710TIP3    H126797   4.614   4.860   0.101  1.1195 -0.3117  0.2545
 3710TIP3    H226798   4.559   4.883   0.240 -0.0388  0.0714 -0.2580
 3711TIP3   OH226799   0.584   4.354   7.695 -0.4232  0.0916  0.0830
 3711TIP3    H126800   0.595   4.409   7.618  1.1136 -0.2355  0.0515
 3711TIP3    H226801   0.641   4.278   7.679 -0.4978 -0.2358  1.2962
 3712TIP3   OH226802   4.974   3.614   6.293  0.1653 -0.1738 -0.3214
 3712TIP3    H126803   4.896   3.583   6.247 -1.7327 -0.0806  2.5468
 3712TIP3    H226804   5.029   3.536   6.305 -1.0087 -0.9392  0.2929
 3713TIP3   OH226805   0.625   3.032   7.324 -0.0126 -0.1435 -0.3772
 3713TIP3    H126806   0.590   3.120   7.306 -1.0019 -0.3613  0.3809
 3713TIP3    H226807   0.550   2.983   7.357  0.3799 -1.4672 -1.3567
 3714TIP3   OH226808   5.608   3.325   0.307  0.5205 -0.2433  0.2741
 3714TIP3    H126809   5.608   3.249   0.248  0.3225  0.9500 -1.3376
 3714TIP3    H226810   5.687   3.374   0.282 -0.0536  0.7544  0.3816
 3715TIP3   OH226811   1.095   2.164   0.473 -0.6010  0.5237 -0.3574
 3715TIP3    H126812   1.145   2.174   0.391 -1.1264  0.8679 -0.6383
 3715TIP3    H226813   1.027   2.100   0.452 -0.6562  0.5129 -0.1492
 3716TIP3   OH226814   2.212   4.716   2.376  0.0413  0.2633 -0.2163
 3716TIP3    H126815   2.184   4.655   2.309 -1.0113 -2.3373  2.3568
 3716TIP3    H226816   2.133   4.766   2.398  0.3960  1.1504 -0.9176
 3717TIP3   OH226817   4.615   0.704   1.100 -0.2574 -0.2372 -0.2775
 3717TIP3    H126818   4.676   0.764   1.058 -0.3698  1.0543  1.3081
 3717TIP3    H226819   4.536   0.757   1.115 -0.9222 -1.2216 -0.2121
 3718TIP3   OH226820   2.632   4.110   6.352  0.2075  0.9133  0.0898
 3718TIP3    H126821   2.636   4.015   6.361 -0.9082  0.8778  0.3861
 3718TIP3    H226822   2.701   4.142   6.411  0.8687  0.2845 -0.3290
 3719TIP3   OH226823   5.198   0.549   6.776 -0.1875 -0.1398  0.0984
 3719TIP3    H126824   5.243   0.575   6.695 -0.8315  0.3243 -0.1170
 3719TIP3    H226825   5.258   0.574   6.846  0.2118 -0.2018 -0.2205
 3720TIP3   OH226826   1.130   2.247   6.184  0.1988 -0.1881 -0.2018
 3720TIP3    H126827   1.152   2.154   6.185 -0.1728 -0.3134  1.9818
 3720TIP3    H226828   1.213   2.291   6.201  0.1496 -0.2088  0.1013
 3721TIP3   OH226829   1.986   3.738   2.619 -0.1828  0.8174 -0.5176
 3721TIP3    H126830   1.977   3.655   2.668 -0.0089  0.3635 -1.2443
 3721TIP3    H226831   1.925   3.729   2.546  0.2861  1.0862 -0.9430
 3722TIP3   OH226832   5.406   3.999   2.695 -0.0457  0.3344  0.1096
 3722TIP3    H126833   5.411   4.079   2.643  1.4939  0.9084  1.0734
 3722TIP3    H226834   5.464   3.937   2.649  1.0941  0.7535  0.9230
 3723TIP3   OH226835   1.105   0.039   1.154 -0.4520 -0.4540 -0.3555
 3723TIP3    H126836   1.079   0.127   1.124  0.6979 -0.1921 -0.6258
 3723TIP3    H226837   1.201   0.040   1.151 -0.3593 -1.1358  1.3186
 3724TIP3   OH226838   1.201   2.697   2.077 -0.0973 -0.4224  0.3371
 3724TIP3    H126839   1.110   2.705   2.105 -0.4493  1.7806 -1.1134
 3724TIP3    H226840   1.250   2.682   2.158 -1.5145  0.8620  1.5077
 3725TIP3   OH226841   4.587   2.124   2.013 -0.1290  0.1422 -0.1138
 3725TIP3    H126842   4.547   2.156   2.094 -1.3883  1.1021 -1.0663
 3725TIP3    H226843   4.651   2.192   1.990 -1.1401  0.8742 -0.8971
 3726TIP3   OH226844   6.303   4.837   2.730  0.0554  0.1718  0.2835
 3726TIP3    H126845   6.302   4.749   2.769 -0.5957  0.0542  0.0283
 3726TIP3    H226846   6.223   4.839   2.676  0.5622  0.5776 -0.4728
 3727TIP3   OH226847   5.494   4.826   7.231 -0.1361 -0.1065 -0.2320
 3727TIP3    H126848   5.399   4.837   7.240 -0.1655 -0.7469  0.3180
 3727TIP3    H226849   5.515   4.750   7.286  0.6980  0.0353 -0.3376
 3728TIP3   OH226850   0.512   5.301   7.213 -0.1834  0.0692  0.5920
 3728TIP3    H126851   0.592   5.353   7.220 -0.9777  1.2927  0.8280
 3728TIP3    H226852   0.487   5.282   7.303 -1.1091  1.2103  0.5910
 3729TIP3   OH226853   4.534   6.229   7.599 -0.0698 -0.3074  0.5707
 3729TIP3    H126854   4.526   6.296   7.667 -1.8008  2.7746 -2.3729
 3729TIP3    H226855   4.457   6.174   7.611 -0.8265  0.7370  0.6443
 3730TIP3   OH226856   5.284   3.575   0.031 -0.5520 -0.4912 -0.0944
 3730TIP3    H126857   5.342   3.540   0.098  0.3278  1.6913  0.3829
 3730TIP3    H226858   5.198   3.579   0.074 -0.1528  0.1668  0.6857
 3731TIP3   OH226859   4.299   3.352   2.209  0.1596 -0.0815 -0.2596
 3731TIP3    H126860   4.379   3.300   2.215 -0.3738 -0.9173 -0.2565
 3731TIP3    H226861   4.327   3.441   2.231  1.6653  0.2271 -2.9505
 3732TIP3   OH226862   0.379   3.836   7.180 -0.0570 -0.1224  0.2412
 3732TIP3    H126863   0.369   3.820   7.274 -1.8155 -2.0565 -0.2067
 3732TIP3    H226864   0.401   3.929   7.174 -1.9342  0.5683  2.4947
 3733TIP3   OH226865   5.985   0.125   0.336 -0.8565  0.0835 -0.4395
 3733TIP3    H126866   5.993   0.221   0.328 -1.2162  0.3006  1.4027
 3733TIP3    H226867   6.023   0.105   0.421 -0.5455 -1.4719 -0.9212
 3734TIP3   OH226868   4.829   0.836   0.980  0.0388  0.6300  0.1057
 3734TIP3    H126869   4.768   0.896   0.937 -1.3288 -1.6174 -1.3482
 3734TIP3    H226870   4.892   0.813   0.912  0.4921  0.3774  0.6051
 3735TIP3   OH226871   5.070   0.490   0.858  0.1781  0.3398  0.9969
 3735TIP3    H126872   5.058   0.569   0.805  0.7316 -0.1309  0.1432
 3735TIP3    H226873   5.005   0.498   0.928 -1.8161  0.1742 -0.7177
 3736TIP3   OH226874   4.875   4.457   1.366  0.0647 -0.2782 -0.0408
 3736TIP3    H126875   4.903   4.395   1.433  0.1010 -1.4269 -1.0963
 3736TIP3    H226876   4.952   4.468   1.310  0.2718  1.2403  0.4737
 3737TIP3   OH226877   2.036   3.229   0.860 -0.4072  0.1175  0.1164
 3737TIP3    H126878   2.060   3.321   0.848  0.1000  0.0788  0.7437
 3737TIP3    H226879   2.059   3.187   0.777  1.3055  0.1839  0.5160
 3738TIP3   OH226880   2.895   4.081   6.930 -0.1047 -0.0632 -0.6905
 3738TIP3    H126881   2.807   4.042   6.931 -0.1174 -0.0299 -0.5279
 3738TIP3    H226882   2.896   4.136   6.852 -1.2693  2.3347  0.8608
 3739TIP3   OH226883   1.852   0.898   6.050  0.4679  0.4148  0.3309
 3739TIP3    H126884   1.824   0.828   5.992  2.1768  0.5451 -0.7219
 3739TIP3    H226885   1.810   0.977   6.014 -0.0972  0.1951  0.5015
 3740TIP3   OH226886   3.674   0.254   7.025 -0.1674  0.4613  0.4332
 3740TIP3    H126887   3.667   0.280   6.934 -0.0930  2.6827  1.0031
 3740TIP3    H226888   3.613   0.181   7.035 -0.0522  0.0764 -1.3938
 3741TIP3   OH226889   0.388   4.075   0.054 -0.2939 -0.0249  0.2811
 3741TIP3    H126890   0.433   4.096  -0.028 -1.6363 -1.2118 -0.8184
 3741TIP3    H226891   0.302   4.044   0.026 -1.3277  0.9357  2.2338
 3742TIP3   OH226892   2.599   3.425   0.117  0.5419  0.2526  0.5350
 3742TIP3    H126893   2.631   3.483   0.185 -1.9293  0.6150  1.5093
 3742TIP3    H226894   2.503   3.431   0.124  0.1569  0.3068 -2.9417
 3743TIP3   OH226895   5.496   1.469   0.693 -0.6862 -0.0174 -0.0031
 3743TIP3    H126896   5.518   1.379   0.717 -0.0041  0.0843 -0.2415
 3743TIP3    H226897   5.551   1.523   0.750  0.2100  0.2335 -1.0825
 3744TIP3   OH226898   1.769   3.836   5.917  0.2788  0.6702  0.0115
 3744TIP3    H126899   1.784   3.929   5.901  0.3512  0.7106  0.3235
 3744TIP3    H226900   1.848   3.793   5.882  0.7412  0.8134  0.8508
 3745TIP3   OH226901   3.114   0.594   1.647  0.1432  0.2055  0.7359
 3745TIP3    H126902   3.089   0.662   1.710  0.3491  0.4163  0.5891
 3745TIP3    H226903   3.121   0.514   1.700 -1.9017 -0.0967  0.6125
 3746TIP3   OH226904   4.114   2.837   0.973  0.2368 -0.3366  0.1093
 3746TIP3    H126905   4.032   2.787   0.967  0.5284 -0.8942  0.6427
 3746TIP3    H226906   4.181   2.771   0.986  0.8755  0.0648 -1.0319
 3747TIP3   OH226907   1.651   2.243   1.578 -0.2314 -0.0359  0.1296
 3747TIP3    H126908   1.652   2.335   1.553 -0.1929 -0.4022 -1.3169
 3747TIP3    H226909   1.591   2.202   1.516  1.3229 -1.3107 -0.6159
 3748TIP3   OH226910   5.971   0.799   7.605  0.4326  0.3054 -1.0054
 3748TIP3    H126911   6.020   0.732   7.557 -0.0092 -1.0755  0.3961
 3748TIP3    H226912   5.882   0.794   7.569  0.0577 -0.8522  0.0362
 3749TIP3   OH226913   3.411   0.913   1.882 -0.6356  0.1921  0.6221
 3749TIP3    H126914   3.358   0.881   1.809 -0.3956  0.6859  0.2188
 3749TIP3    H226915   3.347   0.947   1.945 -1.0365 -2.8583  2.0105
 3750TIP3   OH226916   4.392   0.033   1.078  0.2975  0.2856  0.2549
 3750TIP3    H126917   4.349   0.081   1.007 -0.7869 -0.7398  0.1918
 3750TIP3    H226918   4.348   0.064   1.157  0.7997  0.6663  0.3918
 3751TIP3   OH226919   4.715   3.240   7.086  0.6896  0.4916 -0.3971
 3751TIP3    H126920   4.748   3.260   7.174  1.1180  1.3810 -0.7464
 3751TIP3    H226921   4.765   3.164   7.058  1.7171  1.1941 -0.5043
 3752TIP3   OH226922   2.424   5.569   1.067 -0.2517 -0.6121  0.0452
 3752TIP3    H126923   2.419   5.548   0.974  0.5789 -2.5701  0.3981
 3752TIP3    H226924   2.457   5.659   1.069  1.5598 -1.1627 -1.5560
 3753TIP3   OH226925   0.291   3.497   6.651 -0.0986 -0.2579  0.4353
 3753TIP3    H126926   0.231   3.486   6.577 -1.3705  0.1611  1.3565
 3753TIP3    H226927   0.312   3.408   6.679 -0.6695 -0.4231  0.3665
 3754TIP3   OH226928   0.766   6.018   6.877 -0.4282 -0.5727 -0.2979
 3754TIP3    H126929   0.766   5.936   6.827 -0.0384 -0.6464 -0.1838
 3754TIP3    H226930   0.857   6.029   6.904 -0.3851  0.1463 -0.7101
 3755TIP3   OH226931   5.799   2.976   1.254 -0.6438  0.2080 -0.3449
 3755TIP3    H126932   5.750   3.010   1.179 -1.8926 -0.4322  0.1525
 3755TIP3    H226933   5.738   2.917   1.298  0.3785 -0.1363  0.6610
 3756TIP3   OH226934   6.200   5.042   0.394  0.2146  0.3669  0.3550
 3756TIP3    H126935   6.227   5.010   0.308  1.7016 -1.2354  1.3615
 3756TIP3    H226936   6.129   4.985   0.421 -1.1702  1.7047 -0.3298
 3757TIP3   OH226937   3.403   2.038   1.638  0.6414 -0.4903  0.2631
 3757TIP3    H126938   3.365   2.120   1.670  0.3615 -0.2726 -0.5954
 3757TIP3    H226939   3.386   1.975   1.707 -1.8175 -0.5538 -0.3095
 3758TIP3   OH226940   3.664   6.021   0.326 -0.2712 -0.4415 -0.0898
 3758TIP3    H126941   3.678   5.936   0.285 -1.0222  0.3654 -2.1437
 3758TIP3    H226942   3.573   6.020   0.353 -0.9854  0.5261 -2.2848
 3759TIP3   OH226943   5.116   3.879   6.784 -0.4284  0.4831  0.4520
 3759TIP3    H126944   5.022   3.861   6.775 -0.6190  0.9226  1.4237
 3759TIP3    H226945   5.155   3.795   6.807 -0.1924 -0.2603 -2.3169
 3760TIP3   OH226946   3.060   4.699   2.402  0.0677 -0.5309  0.3370
 3760TIP3    H126947   3.095   4.623   2.355 -0.8218  0.0653 -1.3805
 3760TIP3    H226948   3.039   4.666   2.489 -3.3990 -3.2253 -1.2665
 3761TIP3   OH226949   1.415   3.861   1.604  0.5162 -0.2345  0.1121
 3761TIP3    H126950   1.350   3.877   1.537 -0.2365 -1.1875  0.5942
 3761TIP3    H226951   1.390   3.918   1.677  0.7042  0.0003 -0.0047
 3762TIP3   OH226952   5.999   3.387   0.935 -0.0402 -0.2597  0.3508
 3762TIP3    H126953   5.927   3.366   0.875  0.2444 -0.4524  0.0751
 3762TIP3    H226954   6.000   3.314   0.998  0.9875 -1.1443 -0.6419
 3763TIP3   OH226955   3.129   0.774   0.356 -0.3325 -0.9332  0.0932
 3763TIP3    H126956   3.156   0.683   0.353  0.4929 -0.6615 -1.5552
 3763TIP3    H226957   3.045   0.772   0.402  0.7027 -2.2201  2.0926
 3764TIP3   OH226958   2.694   2.361   2.155  0.9571 -0.2044 -0.0928
 3764TIP3    H126959   2.646   2.340   2.235  1.1762  0.3334  0.1834
 3764TIP3    H226960   2.679   2.454   2.141  0.0022 -0.5203 -1.3080
 3765TIP3   OH226961   1.909   0.387   6.732  0.1430  0.6682 -0.1832
 3765TIP3    H126962   1.866   0.333   6.665  1.2109 -0.5398  0.0572
 3765TIP3    H226963   1.865   0.471   6.727 -0.7089  0.1783 -1.4826
 3766TIP3   OH226964   1.109   5.649   6.722  0.1430 -0.5634  0.4693
 3766TIP3    H126965   1.200   5.641   6.693 -0.2977 -0.2145 -1.0480
 3766TIP3    H226966   1.062   5.686   6.647 -1.3294 -1.0721  1.1065
 3767TIP3   OH226967   1.501   2.155   1.394 -0.6791 -0.2483 -0.3577
 3767TIP3    H126968   1.556   2.078   1.382  0.1222  0.2360  0.0905
 3767TIP3    H226969   1.461   2.170   1.308  0.3251 -0.2950 -0.8500
 3768TIP3   OH226970   3.563   2.338   7.753 -0.3697 -0.0479  0.4968
 3768TIP3    H126971   3.468   2.344   7.745 -0.4352 -1.4217  0.1491
 3768TIP3    H226972   3.596   2.374   7.670 -0.7400 -3.3861 -1.2593
 3769TIP3   OH226973   5.209   2.113   2.090 -0.2173  0.2202  0.0473
 3769TIP3    H126974   5.162   2.029   2.087 -0.1676  0.1396  1.1470
 3769TIP3    H226975   5.193   2.146   2.178  1.9473  0.1064  0.5374
 3770TIP3   OH226976   3.441   5.381   7.297  0.0786  0.2782  0.4940
 3770TIP3    H126977   3.444   5.307   7.238 -0.7360  0.5478  0.0984
 3770TIP3    H226978   3.360   5.427   7.275  1.2904  2.1563 -0.3177
 3771TIP3   OH226979   3.686   1.953   6.633  0.5670 -0.1874 -0.4228
 3771TIP3    H126980   3.697   1.863   6.666  2.2064 -0.7347 -2.2356
 3771TIP3    H226981   3.627   1.944   6.558  0.0288  0.4067 -0.0759
 3772TIP3   OH226982   0.169   0.950   1.357 -0.2247 -0.0595  0.2894
 3772TIP3    H126983   0.228   1.026   1.359 -1.6914  1.1589 -0.4070
 3772TIP3    H226984   0.175   0.918   1.267 -2.1319  1.3935 -0.4317
 3773TIP3   OH226985   1.671   5.094   6.669 -0.0838 -0.5917  0.3481
 3773TIP3    H126986   1.707   5.171   6.625 -0.6663  0.4098  1.5715
 3773TIP3    H226987   1.731   5.078   6.742 -1.7046  0.7432  2.0591
 3774TIP3   OH226988   1.697   0.238   2.091 -0.6578  0.1578  0.0196
 3774TIP3    H126989   1.779   0.277   2.062 -1.1247  0.7186 -0.5573
 3774TIP3    H226990   1.708   0.226   2.185 -0.3424  1.2739  0.1335
 3775TIP3   OH226991   2.311   1.146   7.532  0.6153  0.1753 -0.1069
 3775TIP3    H126992   2.265   1.158   7.616 -0.9353  2.5318 -1.1769
 3775TIP3    H226993   2.388   1.203   7.539  1.2916 -0.7449  0.2052
 3776TIP3   OH226994   4.230   3.272   1.636  0.3555  0.2829 -0.1047
 3776TIP3    H126995   4.266   3.314   1.557 -1.1719  0.5776 -0.6733
 3776TIP3    H226996   4.236   3.339   1.704 -1.0935  1.1004 -0.7446
 3777TIP3   OH226997   5.231   3.209   7.109  0.7731  0.5143 -0.2068
 3777TIP3    H126998   5.290   3.157   7.165 -0.3694 -1.2473 -0.5589
 3777TIP3    H226999   5.158   3.232   7.167  0.8346  0.9458 -0.3007
 3778TIP3   OH227000   1.772   0.553   7.262 -0.3074 -0.4955 -0.5845
 3778TIP3    H127001   1.690   0.573   7.216 -0.3780  1.1419  0.1678
 3778TIP3    H227002   1.833   0.527   7.192 -1.4952 -1.9531 -1.1324
 3779TIP3   OH227003   5.354   6.250   0.561  0.3193  0.5399  0.0890
 3779TIP3    H127004   5.298   6.222   0.633  0.2803  0.9442  0.2178
 3779TIP3    H227005   5.442   6.253   0.598  0.2239  1.2523  0.2608
 3780TIP3   OH227006   4.853   4.668   0.857  0.1659  0.4817 -0.2863
 3780TIP3    H127007   4.852   4.585   0.810  2.3027 -0.1266  0.6280
 3780TIP3    H227008   4.820   4.647   0.944  2.0488  0.2285  0.4058
 3781TIP3   OH227009   0.674   5.804   6.017 -0.0873 -0.1821  0.3428
 3781TIP3    H127010   0.601   5.797   5.957  1.2746 -0.1235 -1.3911
 3781TIP3    H227011   0.703   5.895   6.010 -0.2725 -0.0169  1.5440
 3782TIP3   OH227012   2.607   1.054   7.701 -0.3388 -0.3459 -0.3758
 3782TIP3    H127013   2.544   1.098   7.758 -0.1717 -2.8673  1.9438
 3782TIP3    H227014   2.559   0.981   7.663  0.6209 -1.0441 -0.2903
 3783TIP3   OH227015   2.384   1.769   7.575 -0.2795  0.9372  0.2078
 3783TIP3    H127016   2.432   1.839   7.620  0.4422  0.4825  0.1715
 3783TIP3    H227017   2.319   1.740   7.638  0.0280  1.0198  0.5686
 3784TIP3   OH227018   5.935   3.876   2.704  0.1777  0.0378  0.2751
 3784TIP3    H127019   6.016   3.825   2.705 -0.8947 -1.7813  0.6038
 3784TIP3    H227020   5.866   3.810   2.689 -1.2782  1.4508  0.4761
 3785TIP3   OH227021   3.195   0.612   1.358  0.2805 -0.3524  0.7386
 3785TIP3    H127022   3.180   0.569   1.442 -0.5471 -0.6303  0.4571
 3785TIP3    H227023   3.248   0.689   1.380 -0.4994 -0.0448  1.6144
 3786TIP3   OH227024   6.045   3.498   1.277 -0.4506 -0.4750 -0.3420
 3786TIP3    H127025   6.019   3.583   1.311  0.1470 -0.9511  1.4114
 3786TIP3    H227026   6.132   3.513   1.239 -0.3833 -0.2929 -0.1179
 3787TIP3   OH227027   3.905   3.998   0.917  0.8410 -0.1661  0.4407
 3787TIP3    H127028   3.826   3.948   0.899  1.2831 -0.3472 -1.1787
 3787TIP3    H227029   3.936   4.025   0.830  0.2401  3.5481  1.2073
 3788TIP3   OH227030   2.018   0.586   2.322 -0.1048 -0.3084 -0.3120
 3788TIP3    H127031   1.962   0.636   2.263 -0.6401  0.0146  0.4541
 3788TIP3    H227032   1.963   0.571   2.400  0.8652 -0.0152  0.4403
 3789TIP3   OH227033   4.309   6.075   7.670 -0.2451  0.0036  0.8779
 3789TIP3    H127034   4.221   6.038   7.666  0.0568 -0.6433 -0.7172
 3789TIP3    H227035   4.330   6.079   7.763 -1.1942 -1.6726  1.1945
 3790TIP3   OH227036   0.753   1.030   0.097 -0.1709 -0.3989  0.2874
 3790TIP3    H127037   0.681   1.092   0.111 -1.3546 -1.3865 -1.0120
 3790TIP3    H227038   0.783   1.007   0.185 -2.5399 -1.1348  0.9928
 3791TIP3   OH227039   4.590   6.166   0.962 -0.3108  0.2650  0.2333
 3791TIP3    H127040   4.680   6.195   0.946 -0.1593  1.4583  2.7473
 3791TIP3    H227041   4.535   6.232   0.919  0.0561  1.1700  1.1073
 3792TIP3   OH227042   1.830   0.622   2.102 -0.1955  0.3496 -0.1246
 3792TIP3    H127043   1.749   0.633   2.052 -0.9386  3.2792  1.5065
 3792TIP3    H227044   1.895   0.675   2.057  0.1098  0.1517  0.0709
 3793TIP3   OH227045   3.270   5.776   0.855 -0.2619  0.9420  0.0014
 3793TIP3    H127046   3.346   5.727   0.824 -0.1710 -0.3403  2.0747
 3793TIP3    H227047   3.300   5.820   0.934 -1.4247  1.1369  0.3586
 3794TIP3   OH227048   0.857   0.648   6.911 -0.1835  0.5361 -0.0598
 3794TIP3    H127049   0.789   0.639   6.843  0.5335  0.9004 -0.8489
 3794TIP3    H227050   0.905   0.565   6.906 -0.5971  0.2559  0.5380
 3795TIP3   OH227051   5.766   2.008   7.627 -0.4430 -0.6298  0.3211
 3795TIP3    H127052   5.750   2.076   7.693 -1.1658  1.0409 -1.4815
 3795TIP3    H227053   5.857   1.982   7.641 -0.3522  0.2291  1.4666
 3796TIP3   OH227054   0.547   3.847   0.712  0.9047 -0.1526 -0.4590
 3796TIP3    H127055   0.502   3.789   0.774  0.7121 -0.5371 -0.9462
 3796TIP3    H227056   0.604   3.901   0.766  0.6998 -0.4482  0.0580
 3797TIP3   OH227057   3.192   6.211   0.201  0.3776  0.0938 -0.0768
 3797TIP3    H127058   3.138   6.201   0.280 -0.2160 -3.3138 -0.7449
 3797TIP3    H227059   3.282   6.202   0.233  0.1996 -0.1113  0.3820
 3798TIP3   OH227060   3.895   2.331   0.839 -0.1413  0.8440  0.3979
 3798TIP3    H127061   3.807   2.369   0.846  0.4822  2.2384  1.0187
 3798TIP3    H227062   3.930   2.335   0.927 -0.1373 -1.5716  0.5821
 3799TIP3   OH227063   4.247   0.128   1.957 -0.3692 -0.4692 -0.0144
 3799TIP3    H127064   4.224   0.212   1.995 -0.8729  0.6215 -2.5041
 3799TIP3    H227065   4.217   0.063   2.021  0.4806  1.1873  2.2008
 3800TIP3   OH227066   1.924   3.130   1.554  0.3564 -0.2160  0.0214
 3800TIP3    H127067   1.923   3.149   1.648 -0.5641 -1.4722  0.2834
 3800TIP3    H227068   1.977   3.051   1.546 -0.1096 -0.4869 -0.4302
 3801TIP3   OH227069   1.897   1.147   0.490  0.4680  0.0780  0.3547
 3801TIP3    H127070   1.924   1.214   0.427 -1.1437  0.5452  0.1063
 3801TIP3    H227071   1.974   1.134   0.545  1.6826  0.2032 -1.2188
 3802TIP3   OH227072   5.007   5.924   7.246 -0.1997  0.6680  0.4928
 3802TIP3    H127073   4.999   5.971   7.163 -1.1019  0.5214  0.4836
 3802TIP3    H227074   4.921   5.884   7.259  0.6699 -1.4544  0.2125
 3803TIP3   OH227075   3.515   3.116   1.337 -0.4544  0.3014 -0.0811
 3803TIP3    H127076   3.435   3.142   1.382  0.0015  0.4978  0.6230
 3803TIP3    H227077   3.543   3.036   1.381  0.8199  1.3014  1.0487
 3804TIP3   OH227078   3.599   3.100   2.042 -0.4905  0.1142 -0.1489
 3804TIP3    H127079   3.641   3.034   1.986  0.0938  1.5110 -1.4462
 3804TIP3    H227080   3.589   3.057   2.126 -0.0070 -1.5808 -0.9087
 3805TIP3   OH227081   0.485   6.007   6.800  0.2423 -0.4012  0.6105
 3805TIP3    H127082   0.518   6.015   6.889  1.4848  0.1394  0.1253
 3805TIP3    H227083   0.390   5.999   6.810  0.4259 -1.1123  2.0038
 3806TIP3   OH227084   6.256   5.953   7.008 -0.2690  0.1189 -0.1265
 3806TIP3    H127085   6.309   6.018   6.960 -2.2479  1.2201 -0.9259
 3806TIP3    H227086   6.264   5.979   7.099 -0.7124  1.2826 -0.3972
 3807TIP3   OH227087   0.662   3.311   6.756  0.1798  0.5152 -0.2517
 3807TIP3    H127088   0.676   3.298   6.662  1.2033 -1.0917  0.0856
 3807TIP3    H227089   0.631   3.226   6.788  1.2210  0.5979  1.0879
 3808TIP3   OH227090   1.163   3.403   0.062 -0.0704 -0.3335  0.0677
 3808TIP3    H127091   1.251   3.391   0.026 -1.0151 -1.0274 -2.1862
 3808TIP3    H227092   1.128   3.479   0.015 -0.6552  0.0070  1.0244
 3809TIP3   OH227093   1.925   4.055   7.328 -0.3630  0.2572 -0.3205
 3809TIP3    H127094   1.830   4.056   7.320 -0.5885 -1.9128  1.2435
 3809TIP3    H227095   1.944   4.118   7.398 -0.7160  0.1711 -0.1463
 3810TIP3   OH227096   2.815   4.680   0.565  0.0305 -0.2305 -0.0473
 3810TIP3    H127097   2.780   4.695   0.477 -1.2623  2.2610  0.8038
 3810TIP3    H227098   2.756   4.615   0.604 -0.2534 -0.2552 -0.5186
 3811TIP3   OH227099   3.882   3.578   7.471 -0.0759  0.4044  0.7568
 3811TIP3    H127100   3.906   3.489   7.494 -0.6293 -0.5570 -2.0190
 3811TIP3    H227101   3.790   3.572   7.444 -0.0597  1.7492  0.3074
 3812TIP3   OH227102   3.919   5.972   1.199 -0.3063  0.2741 -0.4937
 3812TIP3    H127103   3.830   5.937   1.201 -0.2001  0.0002  1.3753
 3812TIP3    H227104   3.973   5.901   1.233  0.4048  0.9904 -0.0945
 3813TIP3   OH227105   5.003   1.686   6.198  0.4434 -0.0014 -0.7016
 3813TIP3    H127106   4.989   1.602   6.241 -0.1388 -0.2034 -1.2811
 3813TIP3    H227107   4.935   1.691   6.132  0.5115  0.9020 -0.7146
 3814TIP3   OH227108   3.744   2.397   0.496  0.2039  0.0617  0.0503
 3814TIP3    H127109   3.785   2.426   0.578 -1.5933  0.2782  0.9150
 3814TIP3    H227110   3.765   2.304   0.491 -0.2415 -0.1164  1.1400
 3815TIP3   OH227111   4.389   3.459   0.790 -0.3564  0.2127  0.0916
 3815TIP3    H127112   4.421   3.381   0.835  0.4225  0.2872 -0.3128
 3815TIP3    H227113   4.321   3.494   0.848 -0.9730 -0.9508  0.1184
 3816TIP3   OH227114   3.660   0.917   7.421  0.4079 -0.0410 -0.3782
 3816TIP3    H127115   3.674   0.994   7.366 -0.1896 -0.7522 -1.5721
 3816TIP3    H227116   3.628   0.850   7.360  2.1523 -1.6503  0.3582
 3817TIP3   OH227117   5.400   0.284   6.281  0.1760  0.2731  0.2016
 3817TIP3    H127118   5.488   0.267   6.247 -0.5853 -2.5954 -0.5081
 3817TIP3    H227119   5.414   0.301   6.374  1.4277 -1.3339  0.3492
 3818TIP3   OH227120   5.736   6.029   7.110  0.0385 -0.0641  0.1821
 3818TIP3    H127121   5.682   6.052   7.186  0.1096  0.3701  0.1050
 3818TIP3    H227122   5.712   6.093   7.043  1.2134  0.6399  0.4046
 3819TIP3   OH227123   1.309   5.153   0.244  0.0557 -0.7213 -0.0368
 3819TIP3    H127124   1.242   5.118   0.302 -0.3297 -0.4041 -0.2921
 3819TIP3    H227125   1.348   5.226   0.292  0.8042 -1.4321  0.4629
 3820TIP3   OH227126   4.787   3.702   0.866 -0.0816 -0.1317  0.3197
 3820TIP3    H127127   4.695   3.685   0.882 -0.1258  1.5974  2.2630
 3820TIP3    H227128   4.803   3.666   0.778 -2.0905 -2.1547  0.6835
 3821TIP3   OH227129   2.763   1.455   6.022  0.0015  0.5691 -0.3085
 3821TIP3    H127130   2.837   1.458   6.083 -0.2654  2.3147 -0.0006
 3821TIP3    H227131   2.688   1.435   6.076 -0.2216  2.0312 -0.0319
 3822TIP3   OH227132   5.809   0.923   2.793 -0.1226 -0.1818  0.3714
 3822TIP3    H127133   5.873   0.852   2.795  2.2881  1.7500 -1.5428
 3822TIP3    H227134   5.851   0.995   2.839 -2.7118  0.0149  2.7052
 3823TIP3   OH227135   5.843   6.197   5.723  0.8666 -0.0897  0.0258
 3823TIP3    H127136   5.823   6.112   5.762  1.5646  0.2038  1.0636
 3823TIP3    H227137   5.771   6.254   5.749  0.5995 -0.2556 -0.3394
 3824TIP3   OH227138   4.802   5.695   1.397  0.3007  0.4722 -0.1423
 3824TIP3    H127139   4.840   5.608   1.383  0.4901  0.4782  0.3269
 3824TIP3    H227140   4.875   5.748   1.428  0.0927  0.6999 -0.0409
 3825TIP3   OH227141   3.712   3.277   1.369 -1.0176 -0.3790  0.2530
 3825TIP3    H127142   3.741   3.287   1.460 -1.8121 -2.2670  0.7561
 3825TIP3    H227143   3.635   3.220   1.375 -3.5099  2.4949 -1.2241
 3826TIP3   OH227144   6.013   3.219   0.613  0.4122  0.7954 -0.0674
 3826TIP3    H127145   6.080   3.288   0.610  0.0526  1.1615  0.1833
 3826TIP3    H227146   6.043   3.161   0.684  0.4090  1.0185  0.1199
 3827TIP3   OH227147   0.558   5.301   6.237 -0.2057  0.1152 -0.4071
 3827TIP3    H127148   0.507   5.221   6.255 -1.5522  0.8169 -0.9858
 3827TIP3    H227149   0.628   5.272   6.179 -0.4208 -0.7261 -0.2636
 3828TIP3   OH227150   4.634   3.467   0.499  0.0444 -0.3895 -0.1527
 3828TIP3    H127151   4.664   3.391   0.548 -0.7403  0.5844  1.9340
 3828TIP3    H227152   4.543   3.479   0.526  0.5267  2.0510  0.6327
 3829TIP3   OH227153   2.185   1.730   6.907 -0.0900  0.1067  0.1106
 3829TIP3    H127154   2.189   1.657   6.969 -2.4644  1.2868  1.7861
 3829TIP3    H227155   2.194   1.808   6.961 -0.9903  1.1433 -1.1699
 3830TIP3   OH227156   2.478   0.686   0.892 -0.4375  0.3816 -0.0592
 3830TIP3    H127157   2.505   0.683   0.984  0.7498  0.4391 -0.3835
 3830TIP3    H227158   2.544   0.742   0.850 -0.9450  0.3235 -0.9477
 3831TIP3   OH227159   5.273   4.560   1.085 -0.0770 -0.0642  0.2954
 3831TIP3    H127160   5.305   4.544   0.996  3.7037 -1.2078  1.6755
 3831TIP3    H227161   5.290   4.653   1.100 -2.1790  0.5328 -0.5699
 3832TIP3   OH227162   4.228   2.605   1.326  0.4415 -0.3656  0.2541
 3832TIP3    H127163   4.183   2.524   1.349 -1.2460  0.5944  0.5699
 3832TIP3    H227164   4.220   2.611   1.231 -2.7906  1.1312  0.4560
 3833TIP3   OH227165   0.799   0.423   0.124  0.7169 -0.0050 -0.0734
 3833TIP3    H127166   0.771   0.491   0.064  1.5761  0.8158  0.4272
 3833TIP3    H227167   0.887   0.400   0.094  0.1892 -1.4090 -0.6594
 3834TIP3   OH227168   0.299   5.427   1.555 -0.2590 -0.7360  0.2759
 3834TIP3    H127169   0.239   5.472   1.614  0.0775  0.0268  0.0462
 3834TIP3    H227170   0.248   5.354   1.520 -1.5681  0.7339 -1.0448
 3835TIP3   OH227171   3.535   6.185   0.748  0.7213 -0.1254 -0.0437
 3835TIP3    H127172   3.459   6.212   0.696  0.5802 -1.7552 -0.7628
 3835TIP3    H227173   3.503   6.182   0.838  0.3487  0.6136 -0.1473
 3836TIP3   OH227174   3.648   0.581   1.839 -0.4635  0.1966  0.0745
 3836TIP3    H127175   3.666   0.496   1.798 -1.7340  1.1521 -2.7298
 3836TIP3    H227176   3.735   0.617   1.858  0.1145 -1.3131  0.4355
 3837TIP3   OH227177   1.817   1.963   1.858 -0.6065 -0.6916  0.6785
 3837TIP3    H127178   1.836   2.023   1.929  3.0183  1.2007 -1.6288
 3837TIP3    H227179   1.890   1.901   1.858 -0.4387 -0.5564 -1.4169
 3838TIP3   OH227180   5.739   1.214   6.793  0.3158 -0.5055  0.0936
 3838TIP3    H127181   5.647   1.234   6.774  0.7245 -0.5562 -2.1513
 3838TIP3    H227182   5.742   1.118   6.799  0.4206 -0.5879 -1.1032
 3839TIP3   OH227183   1.963   1.772   7.221 -0.1333 -1.4585 -0.0042
 3839TIP3    H127184   1.870   1.768   7.243  0.3161 -1.7775  2.0145
 3839TIP3    H227185   2.003   1.818   7.295  1.3206 -1.3566 -0.8269
 3840TIP3   OH227186   4.764   2.433   6.649 -0.1336 -0.2069 -0.1881
 3840TIP3    H127187   4.787   2.404   6.737  0.1011  0.8089  0.1001
 3840TIP3    H227188   4.829   2.391   6.593  0.6414  0.2911  0.3035
 3841TIP3   OH227189   2.531   0.175   7.484 -0.3180  0.3551  0.0520
 3841TIP3    H127190   2.584   0.111   7.532 -0.3176  1.0167  0.9561
 3841TIP3    H227191   2.485   0.224   7.553 -2.0309 -0.1319 -0.6953
 3842TIP3   OH227192   0.264   3.654   0.256 -0.4616 -0.6851 -0.1157
 3842TIP3    H127193   0.267   3.657   0.352  1.3512  0.8656 -0.1739
 3842TIP3    H227194   0.355   3.637   0.230 -0.5684  0.7636 -1.5740
 3843TIP3   OH227195   6.215   4.178   6.505 -0.1763 -0.1475 -0.2232
 3843TIP3    H127196   6.145   4.241   6.523 -1.3375 -1.6921  1.0381
 3843TIP3    H227197   6.276   4.225   6.448 -1.8004  1.5446 -0.6769
 3844TIP3   OH227198   5.426   5.656   6.030  0.1150  0.0282 -0.1453
 3844TIP3    H127199   5.389   5.666   5.942  1.1267  0.3051 -0.5491
 3844TIP3    H227200   5.486   5.730   6.039  0.1344 -0.0895  0.7205
 3845TIP3   OH227201   0.584   0.384   0.291  0.2647  0.4220  0.0132
 3845TIP3    H127202   0.667   0.394   0.245 -0.5204 -1.0896 -1.8813
 3845TIP3    H227203   0.525   0.447   0.250 -0.2974 -0.5747 -0.7750
 3846TIP3   OH227204   4.868   3.038   6.954 -0.8649  0.0059  0.0020
 3846TIP3    H127205   4.917   2.989   7.020 -1.1396 -1.0312 -0.5401
 3846TIP3    H227206   4.901   3.005   6.870  0.8969  2.6610 -0.4851
 3847TIP3   OH227207   1.392   1.470   1.910 -0.2264  0.2355  0.0227
 3847TIP3    H127208   1.397   1.480   1.815  1.0423 -0.3600  0.0074
 3847TIP3    H227209   1.414   1.378   1.925 -1.4779  0.0378  0.8337
 3848TIP3   OH227210   1.674   1.133   5.938 -0.4868 -0.3814  0.3117
 3848TIP3    H127211   1.606   1.174   5.991 -0.5136  1.2011 -0.8687
 3848TIP3    H227212   1.628   1.105   5.858  0.1511  0.3208 -0.3145
 3849TIP3   OH227213   2.243   0.599   7.540 -0.5403 -0.6290 -0.2961
 3849TIP3    H127214   2.154   0.618   7.510  0.2974  0.2231 -2.4037
 3849TIP3    H227215   2.269   0.522   7.491  0.2454 -0.2602 -0.4670
 3850TIP3   OH227216   2.064   5.032   6.394  0.0474  0.2455  0.4489
 3850TIP3    H127217   1.974   5.040   6.364  0.5357 -1.9034 -1.9174
 3850TIP3    H227218   2.108   5.110   6.358 -0.1281 -0.5818 -1.6858
 3851TIP3   OH227219   3.510   2.763   0.652  0.0307 -0.0097  0.6795
 3851TIP3    H127220   3.488   2.717   0.732  1.0666 -1.7576  0.0184
 3851TIP3    H227221   3.532   2.852   0.680 -1.9464  0.1183  2.0088
 3852TIP3   OH227222   1.458   5.217   6.809 -0.3033  0.1058 -0.2117
 3852TIP3    H127223   1.537   5.166   6.792  0.0176  0.7023 -0.5528
 3852TIP3    H227224   1.490   5.305   6.829 -0.8967  0.5555 -1.1200
 3853TIP3   OH227225   2.693   1.889   2.097 -0.1408  0.0677  0.0985
 3853TIP3    H127226   2.786   1.911   2.100 -0.2262  0.3271  1.2535
 3853TIP3    H227227   2.649   1.973   2.084 -0.2896  0.1892  1.2590
 3854TIP3   OH227228   3.016   0.835   1.441 -0.0985  0.0356 -0.4368
 3854TIP3    H127229   3.051   0.746   1.442 -0.7222 -0.4891  5.1051
 3854TIP3    H227230   2.921   0.824   1.435 -0.1840  0.2882  0.3497
 3855TIP3   OH227231   3.545   5.716   6.888 -0.3335 -0.1786  0.0050
 3855TIP3    H127232   3.563   5.782   6.821  0.8749  1.0132  1.4396
 3855TIP3    H227233   3.450   5.701   6.882 -0.4939  1.0698 -0.9264
 3856TIP3   OH227234   5.307   6.174   1.634 -0.2934  0.1145 -0.3185
 3856TIP3    H127235   5.230   6.216   1.596  0.9665  2.2525 -0.6671
 3856TIP3    H227236   5.336   6.234   1.703 -0.4176 -1.9191  1.6089
 3857TIP3   OH227237   0.721   6.083   0.738  0.0604 -0.2018 -0.4228
 3857TIP3    H127238   0.762   6.139   0.671  0.3543  0.6431  0.4449
 3857TIP3    H227239   0.786   6.017   0.757 -0.3771 -1.0240 -1.6290
 3858TIP3   OH227240   6.290   6.115   7.236  0.6488  0.4245  0.1101
 3858TIP3    H127241   6.278   6.135   7.329 -1.0910  2.1818 -0.4230
 3858TIP3    H227242   6.328   6.194   7.198 -2.6091  1.4593 -1.3620
 3859TIP3   OH227243   5.580   2.169   1.041 -0.3205 -0.5028  0.1128
 3859TIP3    H127244   5.522   2.140   0.971 -0.0449  1.4283 -0.9779
 3859TIP3    H227245   5.652   2.213   0.996  0.0456  0.4708  1.5782
 3860TIP3   OH227246   0.560   0.082   0.041 -0.3033 -0.0894  0.3248
 3860TIP3    H127247   0.520   0.052   0.122  0.2667  0.0418  0.6609
 3860TIP3    H227248   0.654   0.087   0.061 -0.1759  0.0923 -0.2945
 3861TIP3   OH227249   0.511   6.209   6.161 -0.5143  0.3438  0.3584
 3861TIP3    H127250   0.571   6.230   6.090  2.8232  1.6200  3.2726
 3861TIP3    H227251   0.450   6.283   6.164 -0.6678  0.2948 -1.0627
 3862TIP3   OH227252   4.968   1.621   1.576  0.3413  0.5868  0.3610
 3862TIP3    H127253   4.976   1.529   1.604  0.1415 -0.4227 -2.5460
 3862TIP3    H227254   5.048   1.663   1.607  0.7571 -0.7477  1.1789
 3863TIP3   OH227255   1.227   6.011   1.668 -0.4256 -0.8212  0.0558
 3863TIP3    H127256   1.316   6.015   1.701  0.9736  1.3112 -3.4288
 3863TIP3    H227257   1.181   6.082   1.712 -0.3617 -1.6868  1.5797
 3864TIP3   OH227258   3.031   3.436   7.057  0.0466  0.3083 -0.3375
 3864TIP3    H127259   2.947   3.391   7.066 -0.9335  2.0741 -0.2520
 3864TIP3    H227260   3.042   3.446   6.963  0.8967 -1.1490 -0.4357
 3865TIP3   OH227261   3.736   1.448   1.580  0.8969 -0.0955 -0.1060
 3865TIP3    H127262   3.734   1.512   1.509  2.4217 -0.8014 -0.8292
 3865TIP3    H227263   3.694   1.370   1.542  0.1357  0.0684  0.3709
 3866TIP3   OH227264   2.707   3.720   0.117 -0.1959  0.3251  0.0469
 3866TIP3    H127265   2.634   3.667   0.150  1.3875 -2.8345 -1.0427
 3866TIP3    H227266   2.709   3.701   0.023  0.7043  2.0873 -0.3204
 3867TIP3   OH227267   4.480   4.231   1.042 -0.0623 -1.0094 -0.1647
 3867TIP3    H127268   4.571   4.247   1.070 -0.1557 -1.0917  0.1955
 3867TIP3    H227269   4.477   4.136   1.026 -0.1824 -1.0737  0.2068
 3868TIP3   OH227270   5.730   5.628   6.159  0.4910  0.2462  0.0655
 3868TIP3    H127271   5.689   5.689   6.098  1.0648  0.5256 -0.0440
 3868TIP3    H227272   5.694   5.542   6.135  1.6882  0.1439 -1.5381
 3869TIP3   OH227273   3.345   2.125   6.269 -0.3242 -0.2128  0.1343
 3869TIP3    H127274   3.305   2.077   6.197 -0.8937 -2.4994  1.8410
 3869TIP3    H227275   3.273   2.175   6.307 -0.2424  0.2162 -0.2670
 3870TIP3   OH227276   0.522   4.461   7.436  0.3557 -0.1408  0.1495
 3870TIP3    H127277   0.440   4.484   7.393  0.9593  1.7675 -0.0899
 3870TIP3    H227278   0.525   4.365   7.433 -1.2901 -0.1986 -0.8775
 3871TIP3   OH227279   0.119   6.138   7.735  0.3526 -0.5414 -0.1474
 3871TIP3    H127280   0.187   6.146   7.667 -0.8792 -2.1225 -1.6499
 3871TIP3    H227281   0.139   6.056   7.779  0.3313 -0.2080  0.4882
 3872TIP3   OH227282   2.303   2.383   1.325  0.3035 -0.0575 -0.5139
 3872TIP3    H127283   2.310   2.295   1.361 -1.1199  0.7708  2.0464
 3872TIP3    H227284   2.238   2.376   1.255 -0.7153 -0.8267  0.4949
 3873TIP3   OH227285   5.503   4.906   6.411 -0.6050  0.6463  0.2630
 3873TIP3    H127286   5.572   4.844   6.434  2.5721  4.0472  1.0361
 3873TIP3    H227287   5.463   4.929   6.495 -1.5258 -0.0554  0.0248
 3874TIP3   OH227288   3.632   1.243   2.034 -0.0376  0.2508  0.2571
 3874TIP3    H127289   3.674   1.272   2.115 -0.1905  1.6480 -0.1312
 3874TIP3    H227290   3.649   1.149   2.030  0.3547  0.2431  1.6746
 3875TIP3   OH227291   5.203   2.694   6.825  0.0785  0.0146  0.0077
 3875TIP3    H127292   5.161   2.706   6.740  1.9878  1.7496 -0.7746
 3875TIP3    H227293   5.197   2.780   6.867  0.3928 -0.4514  1.0468
 3876TIP3   OH227294   1.018   2.665   0.790 -0.8354 -0.1345  0.2095
 3876TIP3    H127295   1.022   2.575   0.758 -1.2900 -1.2615  2.9829
 3876TIP3    H227296   0.945   2.665   0.851  0.9923  1.2395  2.5878
 3877TIP3   OH227297   0.992   0.634   2.204  0.3668 -0.0019 -0.1646
 3877TIP3    H127298   0.994   0.727   2.227  1.3920 -0.2115  0.6724
 3877TIP3    H227299   1.076   0.600   2.236  0.5317 -0.9681 -1.5306
 3878TIP3   OH227300   5.441   4.208   2.484 -0.6211 -0.0870  0.0837
 3878TIP3    H127301   5.426   4.300   2.508  0.9988  0.2026  0.0931
 3878TIP3    H227302   5.463   4.212   2.391  2.7597  0.0001  0.7728
 3879TIP3   OH227303   4.583   1.487   1.086 -0.3042  0.2601 -0.1909
 3879TIP3    H127304   4.556   1.403   1.047  0.6777 -0.7760  1.2284
 3879TIP3    H227305   4.671   1.471   1.118 -0.5809  1.4395  1.2679
 3880TIP3   OH227306   2.301   1.965   0.668 -0.3748  0.2105  0.0585
 3880TIP3    H127307   2.248   1.997   0.741 -1.3836 -0.0296 -0.5499
 3880TIP3    H227308   2.286   2.028   0.598  1.0679  0.7757  0.2332
 3881TIP3   OH227309   4.075   3.569   1.684 -0.3542  0.1208 -0.3265
 3881TIP3    H127310   4.098   3.610   1.600  1.7734  1.5033  0.8334
 3881TIP3    H227311   4.008   3.626   1.721 -2.6035 -1.4346 -1.7371
 3882TIP3   OH227312   4.605   4.781   5.840  0.2402  0.2826  0.0896
 3882TIP3    H127313   4.695   4.784   5.806 -0.5386 -0.9439 -2.3352
 3882TIP3    H227314   4.577   4.873   5.842  0.0393  0.4996 -3.8955
 3883TIP3   OH227315   1.784   5.988   0.802  0.0520  0.4654  0.0086
 3883TIP3    H127316   1.753   6.078   0.795 -0.4119  0.3420  0.4262
 3883TIP3    H227317   1.852   5.991   0.869 -1.7767  0.0653  1.9807
 3884TIP3   OH227318   4.091   3.349   1.040  0.7609  0.1028  0.4439
 3884TIP3    H127319   4.002   3.326   1.067  0.1951  2.9836  1.4699
 3884TIP3    H227320   4.119   3.277   0.984 -2.8972 -0.1636 -1.3453
 3885TIP3   OH227321   3.979   4.995   7.566  0.0240  0.3978 -0.4011
 3885TIP3    H127322   4.052   4.991   7.628 -0.2062 -0.9888 -0.1956
 3885TIP3    H227323   3.911   5.043   7.613 -0.4749 -1.3962  0.8219
 3886TIP3   OH227324   5.608   1.659   0.839  0.0927  0.1713  0.3135
 3886TIP3    H127325   5.610   1.700   0.753  0.3828  0.9662  0.6785
 3886TIP3    H227326   5.542   1.709   0.887  0.2929  0.0696  0.7001
 3887TIP3   OH227327   0.696   5.178   1.561  0.0703  0.3046 -0.0619
 3887TIP3    H127328   0.619   5.189   1.616  0.6716  0.2827  0.8074
 3887TIP3    H227329   0.745   5.106   1.602  1.1463  1.1084  0.1158
 3888TIP3   OH227330   4.299   6.081   1.115 -0.2687  0.3913  0.1535
 3888TIP3    H127331   4.303   6.049   1.025 -0.5527  1.9395 -0.4406
 3888TIP3    H227332   4.336   6.169   1.111 -1.4532  0.9887  1.2917
 3889TIP3   OH227333   4.139   0.400   6.364  0.3923  0.2119  0.1417
 3889TIP3    H127334   4.184   0.422   6.283  1.0030 -0.5808  0.2501
 3889TIP3    H227335   4.193   0.332   6.404 -1.3715 -1.4630 -0.1770
 3890TIP3   OH227336   2.700   5.534   1.998  0.1537 -0.1122 -0.0680
 3890TIP3    H127337   2.631   5.569   2.055  0.2720  0.1651 -0.0920
 3890TIP3    H227338   2.779   5.537   2.052 -0.1800 -2.2198  0.6299
 3891TIP3   OH227339   6.061   5.946   0.474 -0.5427  1.0271 -0.1688
 3891TIP3    H127340   6.125   5.966   0.542 -2.5039  1.4785  1.6654
 3891TIP3    H227341   6.061   5.851   0.468 -0.1382  0.9976  0.2574
 3892TIP3   OH227342   0.912   3.557   0.584  0.3885 -0.1553 -0.3151
 3892TIP3    H127343   0.822   3.573   0.558  0.8684 -0.1643 -2.1457
 3892TIP3    H227344   0.916   3.463   0.602  0.0368 -0.1525 -0.2281
 3893TIP3   OH227345   3.282   5.434   6.041  0.0210  0.3685  0.4118
 3893TIP3    H127346   3.264   5.382   5.962 -0.7913  2.8330 -1.1586
 3893TIP3    H227347   3.352   5.494   6.014  1.4303 -0.2984  2.3746
 3894TIP3   OH227348   0.720   2.431   7.266 -0.6203 -0.8596 -0.2210
 3894TIP3    H127349   0.640   2.381   7.279 -1.3468  0.2827 -0.1619
 3894TIP3    H227350   0.745   2.413   7.175  0.0595 -2.6036  0.2747
 3895TIP3   OH227351   2.442   1.267   7.210  0.1631 -0.4244 -0.2366
 3895TIP3    H127352   2.429   1.225   7.295 -0.4496 -1.4132 -0.8118
 3895TIP3    H227353   2.537   1.275   7.202  0.2155  0.2785  0.8187
 3896TIP3   OH227354   5.472   1.632   5.466 -0.5462  0.4415  0.0654
 3896TIP3    H127355   5.536   1.561   5.469 -0.5297  0.1230 -3.5955
 3896TIP3    H227356   5.387   1.589   5.474 -0.4597  0.3619  0.5943
 3897TIP3   OH227357   0.689   2.726   7.035  0.1886  0.2773  0.2984
 3897TIP3    H127358   0.700   2.820   7.047  1.7620  0.0274  1.1335
 3897TIP3    H227359   0.774   2.696   7.002 -0.6073 -0.7188 -0.9701
 3898TIP3   OH227360   6.026   4.388   6.475  0.5633  0.2427 -0.8796
 3898TIP3    H127361   6.032   4.408   6.381  0.2443 -0.4729 -1.0582
 3898TIP3    H227362   5.938   4.353   6.486  0.4878  0.6274 -0.2474
 3899TIP3   OH227363   3.036   1.944   2.978  0.0049 -0.0547  0.5733
 3899TIP3    H127364   3.116   1.996   2.989 -0.3192  0.5032  0.2851
 3899TIP3    H227365   2.968   2.008   2.959 -0.3991 -0.5830  0.2287
 3900TIP3   OH227366   6.301   3.583   6.669  0.0346  0.4775 -0.4713
 3900TIP3    H127367   6.347   3.593   6.586  0.4196  1.3343 -0.1701
 3900TIP3    H227368   6.220   3.633   6.658 -1.1305 -1.4660 -1.1897
 3901TIP3   OH227369   2.149   2.202   0.594  0.0731  0.3500  0.1987
 3901TIP3    H127370   2.134   2.295   0.608 -1.1771  0.6022 -2.1627
 3901TIP3    H227371   2.131   2.160   0.678 -3.6660  1.8339  0.3101
 3902TIP3   OH227372   0.986   6.206   0.233  0.1728 -0.3305  0.0938
 3902TIP3    H127373   0.900   6.175   0.259  1.2272 -1.9395  1.8462
 3902TIP3    H227374   0.989   6.191   0.138 -0.1312 -3.8903  0.5227
 3903TIP3   OH227375   2.452   6.063   1.104 -0.3963  0.7396 -0.4843
 3903TIP3    H127376   2.493   6.145   1.075 -2.4791  1.4877 -1.4937
 3903TIP3    H227377   2.456   6.068   1.200  2.2539  0.5157 -0.5139
 3904TIP3   OH227378   3.854   4.981   0.195 -0.5068 -0.2306  0.7847
 3904TIP3    H127379   3.865   4.963   0.288  2.0879  0.1134  0.6123
 3904TIP3    H227380   3.788   4.918   0.166 -0.6458 -0.9988  2.6513
 3905TIP3   OH227381   0.509   5.426   0.508 -0.6682 -0.1950 -0.0589
 3905TIP3    H127382   0.515   5.330   0.510  2.0745 -0.1222 -0.5556
 3905TIP3    H227383   0.550   5.450   0.425 -1.3435  1.4449  0.0491
 3906TIP3   OH227384   1.566   5.593   1.395  0.4783  0.3892  0.3004
 3906TIP3    H127385   1.475   5.615   1.374 -0.6116 -1.8733  2.1913
 3906TIP3    H227386   1.585   5.517   1.339  0.2704 -0.7452  1.7247
 3907TIP3   OH227387   0.374   2.189   1.665  0.1843  0.1836 -0.0511
 3907TIP3    H127388   0.359   2.156   1.576 -0.3729  1.0202 -0.2816
 3907TIP3    H227389   0.356   2.114   1.722  1.6858 -0.7097 -0.6786
 3908TIP3   OH227390   3.578   5.307   7.740 -0.7403  0.5213 -0.5102
 3908TIP3    H127391   3.637   5.241   7.704 -0.8681 -0.3333  0.7742
 3908TIP3    H227392   3.612   5.390   7.707  1.2016  0.0598  0.1843
 3909TIP3   OH227393   5.764   1.676   6.900  0.0119 -0.4387  0.1353
 3909TIP3    H127394   5.821   1.691   6.824  0.3475  0.0127  0.4687
 3909TIP3    H227395   5.769   1.582   6.916 -0.2820 -0.5787 -0.5751
 3910TIP3   OH227396   1.926   2.805   0.290 -0.6279  0.1928  0.4173
 3910TIP3    H127397   1.843   2.819   0.244  0.7244  1.7246 -1.7450
 3910TIP3    H227398   1.942   2.711   0.282 -1.0400  0.2328 -1.2233
 3911TIP3   OH227399   2.372   3.407   0.850 -0.0352 -0.4278 -0.1672
 3911TIP3    H127400   2.365   3.354   0.929 -0.1274 -0.5590 -0.2624
 3911TIP3    H227401   2.405   3.492   0.880 -0.3035 -0.3985  0.0441
 3912TIP3   OH227402   6.064   3.252   2.272 -0.3573 -0.3309 -0.1387
 3912TIP3    H127403   6.041   3.304   2.196  0.2842 -1.0120 -0.8184
 3912TIP3    H227404   5.995   3.185   2.277  0.5328 -1.3521 -1.1778
 3913TIP3   OH227405   5.998   3.043   1.440 -0.3846 -0.3695 -0.3341
 3913TIP3    H127406   5.982   3.137   1.435 -0.2487 -0.3277 -0.0639
 3913TIP3    H227407   5.932   3.003   1.385  0.5881 -0.0176 -1.8076
 3914TIP3   OH227408   4.064   4.764   1.293  0.0106 -0.5154 -0.3010
 3914TIP3    H127409   3.971   4.747   1.277 -0.0171  1.0025 -1.9543
 3914TIP3    H227410   4.066   4.809   1.378 -0.7030 -0.9328 -0.0530
 3915TIP3   OH227411   5.906   3.012   2.573 -0.5440  0.3889 -0.1359
 3915TIP3    H127412   6.001   3.022   2.583 -0.3468 -1.4609  0.1473
 3915TIP3    H227413   5.871   3.036   2.659 -0.2924  0.5869 -0.0865
 3916TIP3   OH227414   1.710   3.644   7.070 -0.1283 -0.0509 -0.1552
 3916TIP3    H127415   1.719   3.702   6.994 -0.1879 -0.3145 -0.3678
 3916TIP3    H227416   1.765   3.568   7.048  1.2312  0.6152  0.8157
 3917TIP3   OH227417   0.318   2.911   1.209  0.2019 -0.1146 -0.1349
 3917TIP3    H127418   0.358   2.998   1.216  0.3891 -0.2379  0.3879
 3917TIP3    H227419   0.281   2.895   1.295  1.9366 -1.3920  0.4196
 3918TIP3   OH227420   3.392   1.409   1.276  0.3580 -0.0154 -0.2381
 3918TIP3    H127421   3.412   1.384   1.366  1.4803  1.7754  0.0646
 3918TIP3    H227422   3.472   1.388   1.227 -0.3946 -1.3903 -0.9586
 3919TIP3   OH227423   4.783   2.321   1.960  0.1242  0.0128  0.0424
 3919TIP3    H127424   4.790   2.386   1.890  0.0784 -0.6064 -0.5456
 3919TIP3    H227425   4.858   2.340   2.017  1.0273 -0.3913 -0.9669
 3920TIP3   OH227426   0.217   3.928   0.226  0.2899  0.4185 -0.1291
 3920TIP3    H127427   0.195   3.962   0.313  0.1388  1.2929 -0.5010
 3920TIP3    H227428   0.237   3.835   0.241 -0.8163  0.2793  0.6734
 3921TIP3   OH227429   0.726   5.667   1.833 -0.6365 -0.4091  0.2193
 3921TIP3    H127430   0.673   5.619   1.897 -0.8149  0.5359  0.8096
 3921TIP3    H227431   0.794   5.605   1.808 -0.9120 -1.0073  0.8808
 3922TIP3   OH227432   5.054   5.999   2.434 -0.3038  0.7166  0.7927
 3922TIP3    H127433   5.141   5.966   2.413 -0.4548  1.3131 -0.9915
 3922TIP3    H227434   5.057   6.092   2.410 -1.7134  0.5076 -0.3141
 3923TIP3   OH227435   1.574   5.070   2.224  0.0172 -0.2604 -0.1088
 3923TIP3    H127436   1.580   5.139   2.158 -0.5332 -0.2661 -0.1736
 3923TIP3    H227437   1.561   5.115   2.307 -1.6892 -0.2910 -0.3175
 3924TIP3   OH227438   0.836   1.115   1.538  0.0137 -0.0209  0.3848
 3924TIP3    H127439   0.883   1.196   1.516  1.7908 -0.9860  0.4620
 3924TIP3    H227440   0.795   1.088   1.455  0.0753  0.5326  0.1697
 3925TIP3   OH227441   2.324   2.121   1.093 -0.4087 -0.0353 -0.3564
 3925TIP3    H127442   2.383   2.110   1.167 -0.9236 -0.2244  0.0270
 3925TIP3    H227443   2.367   2.188   1.039 -0.0998  0.2051  0.1758
 3926TIP3   OH227444   5.650   3.318   1.297  0.3847 -0.3593 -0.5462
 3926TIP3    H127445   5.624   3.410   1.302  0.6972 -0.3246  1.2635
 3926TIP3    H227446   5.732   3.314   1.346  0.2312 -1.6486 -0.3561
 3927TIP3   OH227447   5.925   0.394   7.406 -0.0910  0.0686  0.1791
 3927TIP3    H127448   5.964   0.336   7.471 -0.5903  1.1173  1.4523
 3927TIP3    H227449   5.967   0.369   7.323  0.8998 -0.9729  0.9672
 3928TIP3   OH227450   4.242   3.050   7.345  0.0988 -0.6008 -0.1380
 3928TIP3    H127451   4.329   3.076   7.316  0.9930 -0.2460  2.5720
 3928TIP3    H227452   4.244   2.954   7.343  0.8081 -0.6101  0.4905
 3929TIP3   OH227453   2.436   4.543   1.700 -0.0198 -0.4078 -0.1815
 3929TIP3    H127454   2.514   4.533   1.646 -0.4871 -0.9958 -0.7650
 3929TIP3    H227455   2.363   4.544   1.638 -0.4430  0.8276  0.2978
 3930TIP3   OH227456   4.867   5.141   1.409  0.0147 -0.5888 -0.5992
 3930TIP3    H127457   4.818   5.217   1.441  0.6184 -0.1234 -0.7450
 3930TIP3    H227458   4.807   5.068   1.417 -0.9402  0.0811 -1.4063
 3931TIP3   OH227459   1.440   0.149   1.983 -0.2840  0.0490 -0.7004
 3931TIP3    H127460   1.474   0.233   1.953  1.5535 -0.5867 -0.4959
 3931TIP3    H227461   1.474   0.140   2.072 -1.3846 -0.4307 -0.3166
 3932TIP3   OH227462   1.573   4.023   6.476  0.5152  0.7315  0.7565
 3932TIP3    H127463   1.632   4.097   6.459  1.8353 -0.3543  0.4470
 3932TIP3    H227464   1.546   3.993   6.390  1.0371  0.0463  0.8213
 3933TIP3   OH227465   1.565   1.107   7.586  0.0278 -0.0405  0.0588
 3933TIP3    H127466   1.540   1.017   7.567 -0.3047 -0.0983  0.7398
 3933TIP3    H227467   1.624   1.100   7.661  0.9657  0.2157 -0.6330
 3934TIP3   OH227468   4.461   3.654   7.622 -0.1626 -0.0766  0.0861
 3934TIP3    H127469   4.418   3.720   7.676  1.0048  0.2671  0.6114
 3934TIP3    H227470   4.554   3.673   7.629  0.1194 -1.0359 -0.7422
 3935TIP3   OH227471   4.580   3.752   6.527  0.0053 -0.3067  0.0542
 3935TIP3    H127472   4.595   3.738   6.433  0.6365  1.2452 -0.0971
 3935TIP3    H227473   4.635   3.686   6.569  0.4899 -0.3680 -0.6503
 3936TIP3   OH227474   5.249   4.083   1.158  0.2801 -0.5259  0.1502
 3936TIP3    H127475   5.218   4.142   1.228 -1.0723 -0.3582 -0.5497
 3936TIP3    H227476   5.246   4.137   1.079  2.0704 -0.6325 -0.0103
 3937TIP3   OH227477   4.336   0.572   6.680  0.4360 -0.6823  0.0000
 3937TIP3    H127478   4.389   0.645   6.713  2.2955 -1.3454 -1.2911
 3937TIP3    H227479   4.362   0.565   6.588 -1.8630 -1.1491 -0.6577
 3938TIP3   OH227480   2.694   3.765   1.269  0.1315  0.1231  0.5463
 3938TIP3    H127481   2.599   3.773   1.260  0.3577  1.3061 -1.2873
 3938TIP3    H227482   2.706   3.695   1.333 -1.9650  0.3450  1.2612
 3939TIP3   OH227483   1.125   0.778   7.323  0.2738  0.5903 -0.4658
 3939TIP3    H127484   1.108   0.756   7.231 -0.0788 -0.4706 -0.1617
 3939TIP3    H227485   1.215   0.748   7.338 -0.4301 -1.3700  0.1305
 3940TIP3   OH227486   4.845   0.147   6.245 -0.0932 -0.0719 -0.0281
 3940TIP3    H127487   4.843   0.052   6.261  0.8794 -0.2282 -0.7534
 3940TIP3    H227488   4.937   0.171   6.255 -0.0679  0.5049 -1.4506
 3941TIP3   OH227489   0.777   0.403   7.550  0.2101 -0.2472  0.1236
 3941TIP3    H127490   0.788   0.336   7.482 -0.0433  0.7555 -0.9501
 3941TIP3    H227491   0.858   0.454   7.546 -0.6284  1.0813 -0.9054
 3942TIP3   OH227492   3.521   1.051   0.488  0.0252 -0.3410  0.2852
 3942TIP3    H127493   3.427   1.065   0.478  0.1197 -0.7197 -1.6236
 3942TIP3    H227494   3.531   1.011   0.574 -1.4497  0.5223  0.8885
 3943TIP3   OH227495   5.380   0.251   1.830 -0.3783  0.4722 -0.4513
 3943TIP3    H127496   5.321   0.176   1.818 -1.6831  1.6683 -2.0904
 3943TIP3    H227497   5.332   0.309   1.890 -0.8199  1.3354 -1.5937
 3944TIP3   OH227498   3.982   3.302   7.206  0.0836  0.3850 -0.3526
 3944TIP3    H127499   4.002   3.246   7.131  1.5283 -0.9376  0.9429
 3944TIP3    H227500   3.993   3.245   7.283 -0.1030  1.9975  0.9377
 3945TIP3   OH227501   1.613   0.292   0.360  0.0686 -0.0465  0.7204
 3945TIP3    H127502   1.545   0.319   0.421  0.6380 -0.6478  1.6408
 3945TIP3    H227503   1.613   0.197   0.363 -0.0101 -0.0965 -0.3584
 3946TIP3   OH227504   0.570   5.342   1.799  0.5672 -0.0254 -0.3425
 3946TIP3    H127505   0.484   5.301   1.803  1.4704 -2.0248 -0.0386
 3946TIP3    H227506   0.581   5.381   1.886  0.4955 -0.9494  0.0955
 3947TIP3   OH227507   0.271   3.592   1.143 -0.3048 -0.0930 -0.2742
 3947TIP3    H127508   0.204   3.557   1.202  0.8856  0.6228  1.5737
 3947TIP3    H227509   0.221   3.623   1.067 -1.6581 -3.1982 -0.7864
 3948TIP3   OH227510   3.810   0.084   1.010  0.1933  0.2103  0.0918
 3948TIP3    H127511   3.827   0.141   0.936 -0.7531  0.9968  0.4503
 3948TIP3    H227512   3.829  -0.004   0.978  3.6363  0.8081  0.1007
 3949TIP3   OH227513   6.198   3.362   0.289  0.2137 -0.2056  0.2125
 3949TIP3    H127514   6.233   3.444   0.254  1.2090 -0.4129  0.6696
 3949TIP3    H227515   6.273   3.321   0.333 -0.8228 -0.2284  2.0683
 3950TIP3   OH227516   3.430   2.516   1.680  0.5067 -0.4172  0.5509
 3950TIP3    H127517   3.432   2.610   1.694  0.4389 -0.5009  1.1467
 3950TIP3    H227518   3.516   2.485   1.710  0.1949 -0.6541  1.2409
 3951TIP3   OH227519   0.481   0.066   1.963 -0.1441 -0.1232  0.1151
 3951TIP3    H127520   0.505   0.044   2.053  1.3950 -0.4878 -0.3593
 3951TIP3    H227521   0.491  -0.016   1.915 -0.8439  0.0954 -0.4286
 3952TIP3   OH227522   1.883   2.119   6.111  0.2309  0.0001 -0.2060
 3952TIP3    H127523   1.862   2.116   6.018 -0.5640 -0.8781 -0.0128
 3952TIP3    H227524   1.798   2.126   6.155  0.5187 -0.6313  0.4818
 3953TIP3   OH227525   0.828   1.280   0.753  0.5708 -0.1038 -0.4632
 3953TIP3    H127526   0.885   1.303   0.826 -0.8341 -0.2362  0.7204
 3953TIP3    H227527   0.873   1.207   0.709  0.3013 -1.7048  1.7604
 3954TIP3   OH227528   3.595   1.426   0.896  0.3288  0.2195  0.1489
 3954TIP3    H127529   3.534   1.487   0.936 -0.0532 -0.1325  0.1090
 3954TIP3    H227530   3.649   1.395   0.969  2.4668  2.7341 -0.2019
 3955TIP3   OH227531   2.428   3.703   0.813 -0.1159  0.6235 -0.3651
 3955TIP3    H127532   2.448   3.703   0.906  0.4161 -1.8084 -0.4056
 3955TIP3    H227533   2.512   3.720   0.770  0.0074 -0.1076 -0.4175
 3956TIP3   OH227534   3.148   0.204   0.204 -0.4495 -0.4667 -0.2611
 3956TIP3    H127535   3.159   0.135   0.138  0.5260 -0.8934  0.3210
 3956TIP3    H227536   3.191   0.169   0.282  0.8252  1.1302 -0.1825
 3957TIP3   OH227537   0.865   0.382   1.453  0.2272  0.2428 -0.1578
 3957TIP3    H127538   0.787   0.402   1.401  0.0164 -1.3844 -0.5174
 3957TIP3    H227539   0.863   0.446   1.524 -0.9413  0.8067 -0.6634
 3958TIP3   OH227540   4.342   4.460   7.730  0.6447 -0.2879 -0.4345
 3958TIP3    H127541   4.367   4.538   7.681  0.2466  0.2524  0.2066
 3958TIP3    H227542   4.424   4.414   7.745  0.9308  0.1894 -0.5174
 3959TIP3   OH227543   0.971   0.882   2.354  0.2780 -0.0541 -0.6287
 3959TIP3    H127544   0.941   0.969   2.381 -0.7569 -0.4364 -0.5250
 3959TIP3    H227545   0.987   0.835   2.436  1.9623  0.3840 -0.6604
 3960TIP3   OH227546   1.780   4.648   7.222  0.4362  0.0318  0.5198
 3960TIP3    H127547   1.771   4.619   7.132 -0.9337  0.8202  0.3893
 3960TIP3    H227548   1.733   4.582   7.274  1.4604 -0.5753  0.7087
 3961TIP3   OH227549   5.186   2.715   0.303  0.6471 -0.8061 -0.1162
 3961TIP3    H127550   5.220   2.686   0.218  1.5539  2.6927 -1.1098
 3961TIP3    H227551   5.250   2.779   0.334 -1.4572  0.6834  1.4482
 3962TIP3   OH227552   3.388   6.182   1.971  0.1448  0.0882 -0.3043
 3962TIP3    H127553   3.320   6.144   2.027  1.3180 -0.6272  0.6955
 3962TIP3    H227554   3.432   6.107   1.931  0.4966  0.5214 -0.7546
 3963TIP3   OH227555   1.562   4.568   6.774 -0.6278  0.4671 -0.4493
 3963TIP3    H127556   1.596   4.495   6.722 -0.8599 -0.2706  0.4272
 3963TIP3    H227557   1.593   4.646   6.727 -1.3558 -0.1506 -2.0631
 3964TIP3   OH227558   2.072   1.590   0.159  0.8043 -1.0329  0.6209
 3964TIP3    H127559   1.989   1.609   0.115  0.0479 -0.6704  2.1358
 3964TIP3    H227560   2.103   1.509   0.119  0.8000 -0.0839 -1.4317
 3965TIP3   OH227561   3.645   4.362   7.738 -0.0254 -0.0975 -0.8322
 3965TIP3    H127562   3.665   4.273   7.768  0.6743  0.3044 -0.0495
 3965TIP3    H227563   3.638   4.354   7.643  0.2498 -0.9467 -0.7952
 3966TIP3   OH227564   6.289   3.516   7.593  0.1587 -0.3139 -0.0022
 3966TIP3    H127565   6.278   3.422   7.605  1.3051 -0.7383 -1.8540
 3966TIP3    H227566   6.340   3.544   7.669 -0.2806 -1.1659  0.6184
 3967TIP3   OH227567   1.439   0.209   7.076  0.0568  0.1385 -0.1008
 3967TIP3    H127568   1.386   0.132   7.058 -0.4086  0.5871 -0.6719
 3967TIP3    H227569   1.430   0.223   7.170 -4.0623  2.4888 -0.6140
 3968TIP3   OH227570   5.070   1.343   1.200 -0.0007 -0.7208  0.1831
 3968TIP3    H127571   5.052   1.267   1.146 -1.1830 -1.4986  1.6026
 3968TIP3    H227572   5.111   1.308   1.279  0.0192  0.1793  0.5858
 3969TIP3   OH227573   4.790   5.188   6.624  0.3571  0.3523  0.0506
 3969TIP3    H127574   4.795   5.271   6.670  0.4221 -0.0381  0.7606
 3969TIP3    H227575   4.781   5.212   6.532 -2.2077  1.1575  0.4501
 3970TIP3   OH227576   5.580   0.356   1.369  0.0999  0.0400  0.1255
 3970TIP3    H127577   5.659   0.384   1.414 -1.0112  1.7809  1.1119
 3970TIP3    H227578   5.582   0.261   1.373  2.8703 -0.0647 -1.2456
 3971TIP3   OH227579   4.349   4.136   6.859 -0.2077 -0.4128  0.3628
 3971TIP3    H127580   4.338   4.067   6.924 -1.0698 -0.3561  0.2920
 3971TIP3    H227581   4.338   4.093   6.775  3.2241 -0.9636  0.0422
 3972TIP3   OH227582   3.499   5.087   2.564 -0.8018 -0.5853  0.2119
 3972TIP3    H127583   3.578   5.033   2.556 -0.8361 -0.4637 -1.3913
 3972TIP3    H227584   3.479   5.111   2.473 -2.7015 -0.6491  0.5908
 3973TIP3   OH227585   4.401   3.919   7.323  0.4139 -0.2170 -0.2291
 3973TIP3    H127586   4.468   3.882   7.381  0.3134  2.6977  2.0044
 3973TIP3    H227587   4.337   3.958   7.382 -0.3927  1.8183 -2.2905
 3974TIP3   OH227588   4.270   1.806   0.415  0.1654 -0.5373  0.3877
 3974TIP3    H127589   4.359   1.790   0.384  0.6330 -0.7620  1.8146
 3974TIP3    H227590   4.265   1.901   0.428  0.4787 -0.6240  1.1469
 3975TIP3   OH227591   1.471   0.833   1.186 -0.1390  0.4723  0.0408
 3975TIP3    H127592   1.461   0.881   1.268  2.2416 -1.0159  1.3065
 3975TIP3    H227593   1.543   0.772   1.202 -0.8177 -1.1878 -2.5716
 3976TIP3   OH227594   1.692   4.444   7.001  0.2380 -0.7241  0.1110
 3976TIP3    H127595   1.639   4.486   6.933  0.3098 -1.3783 -0.3556
 3976TIP3    H227596   1.722   4.362   6.961  2.8897  0.3118 -0.1996
 3977TIP3   OH227597   2.348   4.656   2.811  0.0198  0.0949  0.9584
 3977TIP3    H127598   2.262   4.680   2.847 -1.8220 -1.9397 -1.6897
 3977TIP3    H227599   2.357   4.711   2.733 -0.5312 -1.9047 -0.6200
 3978TIP3   OH227600   4.183   4.858   6.251 -0.7739 -0.2575  0.2011
 3978TIP3    H127601   4.171   4.854   6.157  3.0163 -0.2586 -0.4490
 3978TIP3    H227602   4.180   4.952   6.272  0.4215 -0.0960 -0.3069
 3979TIP3   OH227603   0.346   5.450   7.396  0.0088  0.0332  0.1015
 3979TIP3    H127604   0.379   5.361   7.404 -2.3646 -0.8008  1.2775
 3979TIP3    H227605   0.402   5.489   7.328  1.5499 -2.0836  0.0310
 3980TIP3   OH227606   2.472   3.138   1.645  0.2767  0.6032  0.2053
 3980TIP3    H127607   2.508   3.059   1.685  0.2119  0.6263  0.3105
 3980TIP3    H227608   2.492   3.130   1.552 -2.4418 -1.0949 -0.3597
 3981TIP3   OH227609   2.802   5.187   6.794  0.1827  0.7784 -0.5034
 3981TIP3    H127610   2.812   5.239   6.874  0.1564 -0.1225  0.1004
 3981TIP3    H227611   2.799   5.096   6.825 -0.9414  0.4828 -1.4284
 3982TIP3   OH227612   1.049   3.388   1.955 -0.4404  0.4189 -0.2974
 3982TIP3    H127613   1.051   3.377   2.050  0.0440 -0.8054 -0.4188
 3982TIP3    H227614   1.009   3.307   1.923  1.3826 -0.1690 -1.2253
 3983TIP3   OH227615   1.033   0.868   1.823  0.0140 -0.1176 -0.4004
 3983TIP3    H127616   0.938   0.854   1.818 -0.0668  0.2356  0.1110
 3983TIP3    H227617   1.060   0.882   1.732 -0.3289 -0.8123 -0.6213
 3984TIP3   OH227618   4.637   4.543   6.881 -0.4156 -0.2276  0.1186
 3984TIP3    H127619   4.729   4.568   6.891 -0.3000  0.7864 -2.4838
 3984TIP3    H227620   4.621   4.480   6.951  2.6022 -1.3862 -0.0740
 3985TIP3   OH227621   5.067   1.368   0.334 -0.1413 -0.0842  0.3362
 3985TIP3    H127622   5.071   1.351   0.240  2.1000 -1.0674  0.5365
 3985TIP3    H227623   4.987   1.325   0.364 -0.7667  0.0529 -1.0608
 3986TIP3   OH227624   4.819   2.245   1.502 -0.0532  0.2001  0.4095
 3986TIP3    H127625   4.844   2.310   1.567  0.0658  2.0469 -1.3986
 3986TIP3    H227626   4.765   2.293   1.439 -0.5679 -1.6222 -0.6179
 3987TIP3   OH227627   2.004   3.742   5.863 -0.2068 -0.0309  0.1191
 3987TIP3    H127628   2.044   3.665   5.824 -0.2671  1.1227 -2.3975
 3987TIP3    H227629   2.077   3.788   5.905  0.5979  0.4329 -1.6860
 3988TIP3   OH227630   2.903   1.960   1.280 -0.2033  0.3025  0.2037
 3988TIP3    H127631   2.834   1.893   1.272 -0.1369  0.0725  1.4520
 3988TIP3    H227632   2.961   1.927   1.348  1.6490  0.0788 -1.4092
 3989TIP3   OH227633   0.945   3.003   6.793 -0.4590  0.1302  0.5035
 3989TIP3    H127634   1.022   3.040   6.837 -0.0474 -0.1739  0.0616
 3989TIP3    H227635   0.982   2.957   6.717 -0.7832 -2.3402  1.7384
 3990TIP3   OH227636   5.958   3.668   0.657  0.5758  0.1606 -0.2913
 3990TIP3    H127637   6.024   3.614   0.699 -1.0888 -3.2023 -1.6347
 3990TIP3    H227638   5.990   3.681   0.568  0.4029  0.3770 -0.3243
 3991TIP3   OH227639   5.192   0.601   1.833  0.4928 -0.8091  0.5959
 3991TIP3    H127640   5.215   0.680   1.882 -0.4489 -1.0776  1.4975
 3991TIP3    H227641   5.182   0.632   1.742  1.9807 -0.2632  0.5834
 3992TIP3   OH227642   1.939   0.751   1.692  0.0293 -0.4273  0.0194
 3992TIP3    H127643   1.844   0.764   1.688 -0.0931 -0.5441  1.7454
 3992TIP3    H227644   1.951   0.656   1.685 -0.0371 -0.4698  0.4570
 3993TIP3   OH227645   4.654   5.160   1.196  0.7680 -0.2831  0.1368
 3993TIP3    H127646   4.584   5.153   1.261 -0.1794  0.1306 -0.8112
 3993TIP3    H227647   4.695   5.074   1.196  0.5173 -0.4117  0.9810
 3994TIP3   OH227648   6.208   4.992   7.619 -0.0798 -0.4611  0.3274
 3994TIP3    H127649   6.152   4.956   7.550 -1.1652  2.7640 -0.6570
 3994TIP3    H227650   6.291   5.009   7.576  0.0385 -0.6953  0.4646
 3995TIP3   OH227651   3.895   4.824   0.425  0.0788 -0.0958  0.1537
 3995TIP3    H127652   3.915   4.893   0.489  0.5929  0.2341 -0.3466
 3995TIP3    H227653   3.884   4.745   0.478 -0.0053  0.2675  0.6928
 3996TIP3   OH227654   3.313   1.435   0.610 -0.1771  0.4523  0.4873
 3996TIP3    H127655   3.280   1.468   0.527  0.1710 -0.2973  0.0447
 3996TIP3    H227656   3.276   1.347   0.618  1.7747 -0.4748 -0.0820
 3997TIP3   OH227657   0.402   2.603   7.492  0.1386  0.3778 -0.4081
 3997TIP3    H127658   0.490   2.611   7.457  1.4122 -4.1729  1.0830
 3997TIP3    H227659   0.402   2.657   7.571  0.6333  2.4163 -1.7275
 3998TIP3   OH227660   4.777   1.432   6.546  0.6771  0.0042 -0.2978
 3998TIP3    H127661   4.772   1.336   6.540 -1.0803  0.0539 -0.0852
 3998TIP3    H227662   4.798   1.461   6.457 -0.8531 -0.5012 -0.8597
 3999TIP3   OH227663   2.734   2.272   1.893  0.6125 -0.6073 -0.2190
 3999TIP3    H127664   2.653   2.283   1.843  0.3694  0.4659  0.3719
 3999TIP3    H227665   2.770   2.361   1.900 -0.5335 -0.2399  3.3812
 4000TIP3   OH227666   5.760   0.333   0.255  0.0381 -0.4730 -0.3512
 4000TIP3    H127667   5.803   0.333   0.169 -1.0139 -0.5787 -0.9014
 4000TIP3    H227668   5.717   0.418   0.261 -1.7734 -1.2952 -0.9440
 4001TIP3   OH227669   0.262   3.292   0.230 -0.1282  0.1024  0.3854
 4001TIP3    H127670   0.209   3.313   0.307  0.6610 -0.2418  1.0447
 4001TIP3    H227671   0.346   3.262   0.267  0.8423  1.4724 -0.6407
 4002TIP3   OH227672   0.446   0.649   6.428 -0.1232 -0.6528  0.2065
 4002TIP3    H127673   0.533   0.660   6.391  0.1264  0.0079  0.9744
 4002TIP3    H227674   0.460   0.603   6.511 -0.4428 -0.0812  0.5879
 4003TIP3   OH227675   2.796   2.770   1.536  0.2798  0.7158  0.0251
 4003TIP3    H127676   2.836   2.846   1.579 -0.3401  0.5840  0.8564
 4003TIP3    H227677   2.709   2.763   1.576  0.4847 -0.6842  0.2482
 4004TIP3   OH227678   1.971   2.539   0.245 -0.6488 -0.1623 -0.3861
 4004TIP3    H127679   1.916   2.494   0.181 -1.6308  1.7229 -0.9612
 4004TIP3    H227680   2.059   2.536   0.207 -0.6560 -1.6387 -0.3402
 4005TIP3   OH227681   5.691   1.256   0.341 -0.5616 -0.0848  0.1009
 4005TIP3    H127682   5.646   1.176   0.367 -1.0007 -0.0971 -0.6659
 4005TIP3    H227683   5.621   1.314   0.312 -0.0652 -0.2635 -1.5383
 4006TIP3   OH227684   6.294   0.980   0.718 -0.0137 -0.0574 -0.6577
 4006TIP3    H127685   6.386   0.966   0.696  0.8894  0.3679  2.3553
 4006TIP3    H227686   6.270   0.906   0.773 -1.3186  0.1216 -0.9454
 4007TIP3   OH227687   5.259   1.020   0.332  0.1691  0.4014  0.1502
 4007TIP3    H127688   5.303   1.061   0.257 -0.0044  1.8105  0.7720
 4007TIP3    H227689   5.329   0.973   0.377  0.7422  1.3523  0.2887
 4008TIP3   OH227690   4.160   0.987   1.714  0.1309 -0.3695  0.1219
 4008TIP3    H127691   4.147   1.070   1.668  2.1333 -1.3270 -2.4257
 4008TIP3    H227692   4.079   0.975   1.765 -2.6165  0.6023 -3.5586
 4009TIP3   OH227693   1.973   5.289   1.996  0.3487 -0.2559 -0.3666
 4009TIP3    H127694   2.026   5.275   2.074  0.6222  1.0552 -0.2860
 4009TIP3    H227695   2.019   5.358   1.948  0.4079 -1.3311 -1.9176
 4010TIP3   OH227696   0.434   1.940   6.078 -0.0317  0.1250  0.0186
 4010TIP3    H127697   0.445   2.026   6.038  0.9311 -0.2399 -0.5171
 4010TIP3    H227698   0.363   1.953   6.142  0.8133  1.5745  0.7213
 4011TIP3   OH227699   2.475   1.164   0.967 -0.3121  0.5896 -0.1513
 4011TIP3    H127700   2.428   1.213   0.899  2.5417  0.9128 -2.0510
 4011TIP3    H227701   2.567   1.185   0.953  0.6509 -1.7805  1.8961
 4012TIP3   OH227702   4.237   5.722   7.383  0.2844  1.4468 -0.3300
 4012TIP3    H127703   4.169   5.786   7.404 -0.7976  0.8139 -1.7802
 4012TIP3    H227704   4.189   5.640   7.370  1.5402  0.5451  0.4852
 4013TIP3   OH227705   3.894   4.326   1.364  0.5349  0.2585  0.1690
 4013TIP3    H127706   3.947   4.273   1.304  1.9457 -0.4032  1.9180
 4013TIP3    H227707   3.926   4.304   1.451 -0.2165  2.5134  1.1049
 4014TIP3   OH227708   3.314   0.164   6.883  0.0784 -0.2928 -0.4277
 4014TIP3    H127709   3.233   0.117   6.905 -0.2674  0.3888 -0.2153
 4014TIP3    H227710   3.286   0.233   6.823  0.5333 -0.1508 -0.4817
 4015TIP3   OH227711   3.599   2.066   6.057  0.0654 -0.0146 -0.0626
 4015TIP3    H127712   3.628   1.981   6.092  0.7557  0.4188  0.4384
 4015TIP3    H227713   3.618   2.128   6.126  0.4872  0.7062 -0.8044
 4016TIP3   OH227714   1.451   1.191   7.221  0.3080  0.9445  0.5775
 4016TIP3    H127715   1.454   1.097   7.239  2.9812  0.6613 -0.8378
 4016TIP3    H227716   1.424   1.231   7.303 -2.0483 -1.0808  0.9069
 4017TIP3   OH227717   4.872   4.833   7.303  0.4404  0.2866  0.3684
 4017TIP3    H127718   4.803   4.777   7.339  0.6983 -0.0889  0.2829
 4017TIP3    H227719   4.931   4.849   7.376  0.9759 -0.4937  0.1150
 4018TIP3   OH227720   6.154   2.884   0.566  0.0418 -0.1818  0.4710
 4018TIP3    H127721   6.151   2.958   0.626 -0.2442 -0.1960  0.4793
 4018TIP3    H227722   6.108   2.814   0.612  2.1549 -1.0641  1.3729
 4019TIP3   OH227723   0.132   4.913   1.487  0.0018 -0.0797 -0.0854
 4019TIP3    H127724   0.162   4.952   1.404  0.3583 -0.4355 -0.1304
 4019TIP3    H227725   0.204   4.856   1.513 -0.9016 -1.4586 -0.5208
 4020TIP3   OH227726   4.623   1.017   7.079  0.1952  0.1797 -0.0290
 4020TIP3    H127727   4.698   1.025   7.020 -0.8307  1.8093 -1.2024
 4020TIP3    H227728   4.556   0.972   7.026 -0.3630  0.6454  0.2727
 4021TIP3   OH227729   3.929   5.022   0.600 -0.5432 -0.7918  0.1039
 4021TIP3    H127730   3.920   5.101   0.545 -0.2429 -0.4423  0.5531
 4021TIP3    H227731   3.869   5.038   0.674  0.7161 -0.2497  1.0365
 4022TIP3   OH227732   4.430   2.393   7.194 -0.0353 -0.1266  0.0755
 4022TIP3    H127733   4.354   2.336   7.208 -0.2589  0.0548 -0.3877
 4022TIP3    H227734   4.482   2.384   7.274 -1.1247  0.6451  0.8945
 4023TIP3   OH227735   4.023   6.070   7.623 -0.1416  0.0181 -0.2792
 4023TIP3    H127736   4.055   6.153   7.587 -0.5303 -0.4250 -1.7366
 4023TIP3    H227737   3.991   6.092   7.710 -1.7264  1.7820 -1.2258
 4024TIP3   OH227738   3.882   1.013   2.222  0.0647 -0.3211  0.6007
 4024TIP3    H127739   3.835   0.936   2.190 -0.2422 -0.7139  1.9208
 4024TIP3    H227740   3.948   0.977   2.281  0.3236  0.3983  0.7505
 4025TIP3   OH227741   5.170   3.690   6.036 -0.0275 -0.4562  0.2790
 4025TIP3    H127742   5.105   3.627   6.067 -0.9515  1.4475  2.4571
 4025TIP3    H227743   5.120   3.769   6.017  0.9394 -0.5440 -3.4250
 4026TIP3   OH227744   5.982   5.116   7.271  0.3321 -0.0964 -0.0227
 4026TIP3    H127745   6.016   5.107   7.182 -2.9769 -0.7994 -1.3541
 4026TIP3    H227746   6.026   5.047   7.320  1.7332 -0.1268 -1.2449
 4027TIP3   OH227747   3.394   3.024   1.748  0.2636  0.2040  0.7090
 4027TIP3    H127748   3.337   3.059   1.817  0.7090 -0.1761  1.2738
 4027TIP3    H227749   3.361   3.064   1.668 -1.3999 -0.6982  0.8860
 4028TIP3   OH227750   2.022   0.773   0.615 -0.5979 -0.3199  0.0626
 4028TIP3    H127751   2.083   0.735   0.679 -1.5102 -1.1775  0.4414
 4028TIP3    H227752   2.060   0.859   0.595  0.8799 -0.9436  0.0655
 4029TIP3   OH227753   0.733   5.333   2.263  0.4193 -0.1943 -0.0402
 4029TIP3    H127754   0.703   5.358   2.351 -0.0793 -1.5757  0.2081
 4029TIP3    H227755   0.828   5.337   2.268  0.4010 -0.3753  0.6129
 4030TIP3   OH227756   4.439   5.311   0.354  0.0102  0.0055  0.4466
 4030TIP3    H127757   4.475   5.254   0.423 -1.7456 -0.0536  1.3723
 4030TIP3    H227758   4.456   5.263   0.273  2.0865  0.0524  0.7998
 4031TIP3   OH227759   5.768   3.872   6.874  0.2599 -0.1396  1.1256
 4031TIP3    H127760   5.803   3.941   6.817  0.6855  0.8485  2.5209
 4031TIP3    H227761   5.827   3.872   6.950  0.4138 -2.2358  1.0502
 4032TIP3   OH227762   1.185   3.458   1.725  0.3491  0.8289  0.2295
 4032TIP3    H127763   1.168   3.452   1.819  1.6440  0.0136  0.4305
 4032TIP3    H227764   1.277   3.434   1.715 -0.5089 -2.3289 -1.5535
 4033TIP3   OH227765   0.206   5.430   2.467  0.3133 -0.0692 -0.2321
 4033TIP3    H127766   0.278   5.432   2.404  1.7475  0.9408  1.3477
 4033TIP3    H227767   0.237   5.373   2.538 -0.1161  0.9200  0.7929
 4034TIP3   OH227768   2.238   3.311   1.207 -0.2911 -0.4891  0.1212
 4034TIP3    H127769   2.223   3.306   1.301  0.4955 -1.8948  0.1949
 4034TIP3    H227770   2.205   3.398   1.182 -1.6577 -0.5762  1.4625
 4035TIP3   OH227771   4.461   5.865   7.148 -0.4050  0.5225  0.5750
 4035TIP3    H127772   4.434   5.811   7.222 -0.5180 -0.6794 -0.3169
 4035TIP3    H227773   4.387   5.925   7.135 -1.8749 -1.4108 -0.5699
 4036TIP3   OH227774   2.844   4.365   7.564  0.4816  0.1942  0.3489
 4036TIP3    H127775   2.857   4.321   7.480 -0.0700 -0.8231  0.7730
 4036TIP3    H227776   2.900   4.316   7.625  3.5037  2.8980  0.0545
 4037TIP3   OH227777   1.091   2.116   6.453  0.1639  0.2603  0.4843
 4037TIP3    H127778   1.120   2.204   6.478 -0.6979  1.7093 -2.9003
 4037TIP3    H227779   1.128   2.103   6.366 -0.6327 -2.3024  0.4463
 4038TIP3   OH227780   0.976   2.702   0.238  0.0927 -0.3817  0.0579
 4038TIP3    H127781   0.952   2.773   0.297  0.8212  1.4124 -1.6696
 4038TIP3    H227782   1.020   2.638   0.294 -0.8341  0.3786  1.7300
 4039TIP3   OH227783   3.107   2.107   7.054  0.4193  0.8545 -0.3400
 4039TIP3    H127784   3.040   2.133   7.117  1.5715 -0.9658  1.8220
 4039TIP3    H227785   3.096   2.166   6.980 -1.3511  2.8187  1.3762
 4040TIP3   OH227786   5.208   0.183   7.328  0.4329 -0.3069  0.3060
 4040TIP3    H127787   5.276   0.128   7.368  0.6521 -0.3419 -0.1053
 4040TIP3    H227788   5.131   0.126   7.323  0.8447 -0.8008 -0.7105
 4041TIP3   OH227789   1.997   0.420   1.722  0.0141 -0.7846 -0.5516
 4041TIP3    H127790   1.999   0.341   1.669 -1.9546 -1.2994  0.0678
 4041TIP3    H227791   1.904   0.438   1.736  0.4326  0.9857  0.2894
 4042TIP3   OH227792   5.442   3.480   7.284 -0.0778  0.1643  0.6275
 4042TIP3    H127793   5.365   3.535   7.272  0.1760  0.1503 -1.4858
 4042TIP3    H227794   5.479   3.471   7.196  1.6720 -0.7973  1.4084
 4043TIP3   OH227795   1.504   2.847   0.780 -0.3199  0.3029  0.1892
 4043TIP3    H127796   1.452   2.917   0.739  0.0608  0.2903 -0.3100
 4043TIP3    H227797   1.441   2.776   0.795 -0.6506  0.6444  0.4559
 4044TIP3   OH227798   3.145   5.180   1.723  0.3691 -0.1504  0.2246
 4044TIP3    H127799   3.105   5.211   1.641  2.5013  1.4784 -0.3181
 4044TIP3    H227800   3.187   5.097   1.699 -0.4899 -0.5666  0.1361
 4045TIP3   OH227801   5.298   2.917   7.575 -0.0882  0.2534 -0.0573
 4045TIP3    H127802   5.379   2.869   7.556 -0.3069 -0.2560  0.2745
 4045TIP3    H227803   5.328   2.999   7.614  0.2644  0.0021  0.2055
 4046TIP3   OH227804   1.865   3.385   1.066 -0.1438  0.2251  0.6278
 4046TIP3    H127805   1.824   3.326   1.003 -0.5362  0.1520  0.9463
 4046TIP3    H227806   1.952   3.402   1.030  0.4947 -1.5913  1.1668
 4047TIP3   OH227807   5.299   1.042   1.650 -0.4981  0.5758 -0.0036
 4047TIP3    H127808   5.341   1.109   1.703 -0.7919  0.9531 -0.2443
 4047TIP3    H227809   5.209   1.037   1.683 -0.5497  0.4838 -0.1540
 4048TIP3   OH227810   2.815   1.650   1.812 -0.3673  0.3631 -0.3834
 4048TIP3    H127811   2.821   1.740   1.780 -1.4418  0.3055 -0.7786
 4048TIP3    H227812   2.902   1.613   1.797 -0.1003  1.1483 -0.7842
 4049TIP3   OH227813   0.839   1.051   2.876 -0.1982 -0.7502  0.0509
 4049TIP3    H127814   0.784   1.062   2.953  0.7537 -1.2216  0.8127
 4049TIP3    H227815   0.824   1.131   2.825  1.2480  0.9220  2.0569
 4050TIP3   OH227816   2.191   1.917   1.410  0.2062 -0.0918  0.0656
 4050TIP3    H127817   2.282   1.937   1.433  0.4770 -0.8180 -0.3542
 4050TIP3    H227818   2.143   1.998   1.429  1.0128  0.4357 -0.1093
 4051TIP3   OH227819   1.568   1.418   1.107 -0.5570  0.3099 -0.7282
 4051TIP3    H127820   1.550   1.392   1.198 -0.4056 -2.1859 -1.3298
 4051TIP3    H227821   1.633   1.487   1.114  0.2854 -0.5862  1.0668
 4052TIP3   OH227822   3.144   1.120   1.268  0.4499  0.1128  0.0723
 4052TIP3    H127823   3.146   1.192   1.332  2.2507 -1.1741  1.5684
 4052TIP3    H227824   3.127   1.042   1.321 -2.8705 -0.5361 -1.6741
 4053TIP3   OH227825   1.707   0.998   7.226 -0.0636  0.6027  0.0614
 4053TIP3    H127826   1.728   1.089   7.249 -1.4019  0.5243  1.7435
 4053TIP3    H227827   1.793   0.955   7.222  0.7678  2.2395 -2.5201
 4054TIP3   OH227828   5.502   1.200   6.504  0.3798 -1.3025 -0.3839
 4054TIP3    H127829   5.549   1.122   6.534  0.8831 -0.1127  2.1771
 4054TIP3    H227830   5.435   1.216   6.571 -0.7028 -0.3697 -1.6276
 4055TIP3   OH227831   5.685   2.088   5.739  0.0732 -0.4712 -0.2884
 4055TIP3    H127832   5.629   2.165   5.752 -1.1824 -1.6778  1.8724
 4055TIP3    H227833   5.772   2.118   5.764 -0.2848  0.4192 -0.0425
 4056TIP3   OH227834   3.355   0.778   5.475 -0.5618 -0.2167 -0.2660
 4056TIP3    H127835   3.439   0.764   5.519  1.3938  0.5373 -3.4180
 4056TIP3    H227836   3.307   0.696   5.486  0.9559 -0.9919  0.8543
 4057TIP3   OH227837   2.243   0.281   5.961 -0.0220  0.7397  0.4907
 4057TIP3    H127838   2.246   0.185   5.962 -1.5079  0.6623  2.3083
 4057TIP3    H227839   2.321   0.308   6.009  1.2788  0.5555 -1.3796
 4058TIP3   OH227840   0.541   3.052   0.980 -0.1424  0.8380 -0.2217
 4058TIP3    H127841   0.549   2.990   0.907 -0.7542  1.0736 -0.4947
 4058TIP3    H227842   0.601   3.122   0.959  1.0748  0.0233  0.4281
 4059TIP3   OH227843   4.404   0.498   1.212 -0.2002  0.4841  1.1355
 4059TIP3    H127844   4.454   0.565   1.259 -0.0443  1.2335 -0.0646
 4059TIP3    H227845   4.469   0.446   1.166 -0.4836  1.6996 -0.7409
 4060TIP3   OH227846   0.318   1.773   2.051  0.8540  0.4645  0.3598
 4060TIP3    H127847   0.331   1.726   2.134 -0.9259  2.0893  1.6682
 4060TIP3    H227848   0.386   1.840   2.050  1.3327 -0.0204  0.1315
 4061TIP3   OH227849   2.035   2.992   6.198 -0.2447  0.1555 -0.3368
 4061TIP3    H127850   2.088   2.927   6.244 -0.8412 -2.1844 -2.6726
 4061TIP3    H227851   2.089   3.070   6.195  0.8072 -0.4113  2.0150
 4062TIP3   OH227852   5.218   1.672   0.757  0.0109 -0.2639  0.2726
 4062TIP3    H127853   5.310   1.667   0.733 -0.3404 -3.3650 -0.9100
 4062TIP3    H227854   5.212   1.623   0.839 -0.4008  1.1842  1.1322
 4063TIP3   OH227855   5.217   3.438   1.311  0.3946 -0.1719  0.3630
 4063TIP3    H127856   5.125   3.423   1.331  0.6027 -1.8031  0.2071
 4063TIP3    H227857   5.218   3.523   1.267 -1.1591 -0.5511 -0.4734
 4064TIP3   OH227858   0.496   0.925   1.457 -0.2165 -0.3335  0.1562
 4064TIP3    H127859   0.422   0.981   1.432 -0.4050 -0.1750  1.0306
 4064TIP3    H227860   0.513   0.948   1.549  2.0132  0.8681 -0.4749
 4065TIP3   OH227861   1.210   5.602   6.363 -0.7139 -0.3092  0.1163
 4065TIP3    H127862   1.279   5.664   6.388 -2.0002  0.8121  1.0308
 4065TIP3    H227863   1.225   5.587   6.269 -0.0285  0.9551 -0.0055
 4066TIP3   OH227864   0.560   5.629   6.942  0.1154 -0.2852 -0.3530
 4066TIP3    H127865   0.649   5.601   6.922 -0.3179 -0.5853 -2.0144
 4066TIP3    H227866   0.563   5.724   6.939  0.4740 -0.2792  0.0766
 4067TIP3   OH227867   3.280   3.987   0.035  0.3698  0.2443  0.4897
 4067TIP3    H127868   3.229   4.054   0.082 -1.4478 -0.2605 -0.6834
 4067TIP3    H227869   3.335   3.948   0.103  0.1511  1.6786  1.5603
 4068TIP3   OH227870   0.753   1.667   5.941  0.2867  0.0843  0.3931
 4068TIP3    H127871   0.835   1.636   5.980 -0.5100 -0.7452  1.4969
 4068TIP3    H227872   0.691   1.665   6.014 -0.3150  2.4040  0.0085
 4069TIP3   OH227873   0.543   1.658   0.374 -0.4229 -0.1204 -0.0075
 4069TIP3    H127874   0.523   1.617   0.290  0.5934 -2.4324  0.7902
 4069TIP3    H227875   0.485   1.734   0.378 -1.5389 -0.7703 -2.1456
 4070TIP3   OH227876   2.124   4.416   1.330 -0.0311  0.3077 -0.0769
 4070TIP3    H127877   2.110   4.510   1.322 -0.5825  0.6141  3.3428
 4070TIP3    H227878   2.059   4.387   1.393  0.6263 -2.2764 -0.4670
 4071TIP3   OH227879   1.392   5.892   7.346  0.2034 -0.2461 -0.3310
 4071TIP3    H127880   1.425   5.933   7.425 -0.0746 -1.2218  0.3017
 4071TIP3    H227881   1.415   5.799   7.354 -0.8798 -0.5843 -0.8196
 4072TIP3   OH227882   2.001   2.944   7.294  0.1363 -0.0496  0.8514
 4072TIP3    H127883   1.945   2.933   7.217  1.2712  0.5586 -0.0755
 4072TIP3    H227884   1.963   3.018   7.341  0.0429  0.2393  0.3270
 4073TIP3   OH227885   1.163   4.331   0.345 -0.4338 -0.5989  0.9298
 4073TIP3    H127886   1.163   4.235   0.345  0.7487 -0.6270  0.0342
 4073TIP3    H227887   1.250   4.354   0.312 -0.9164  0.7857  0.5764
 4074TIP3   OH227888   5.066   1.873   0.860 -0.5079  0.4736 -0.2428
 4074TIP3    H127889   5.134   1.810   0.836 -0.9730  0.2890 -1.1387
 4074TIP3    H227890   5.042   1.851   0.950 -0.4423 -0.4249 -0.4399
 4075TIP3   OH227891   3.284   2.593   7.094 -0.0667  0.2673 -0.2046
 4075TIP3    H127892   3.195   2.569   7.068 -0.3744  0.5741  0.5233
 4075TIP3    H227893   3.339   2.563   7.022 -0.5428 -1.6529  0.1726
 4076TIP3   OH227894   4.830   6.259   0.881  0.2639  0.0598  0.0418
 4076TIP3    H127895   4.888   6.183   0.872  0.3316  0.0046  0.8537
 4076TIP3    H227896   4.825   6.296   0.793  1.6380  0.1379 -0.0312
 4077TIP3   OH227897   3.973   1.014   1.945 -0.7440  0.0644 -0.1277
 4077TIP3    H127898   3.928   1.012   2.029  0.0493  0.9997  0.3412
 4077TIP3    H227899   4.060   0.977   1.964  0.1823  2.1294 -0.0333
 4078TIP3   OH227900   0.084   1.610   1.040  0.0498 -0.4107  0.0227
 4078TIP3    H127901   0.037   1.528   1.057 -1.1962 -0.4490 -2.9540
 4078TIP3    H227902   0.177   1.586   1.044 -0.2548 -1.5101  1.0996
 4079TIP3   OH227903   2.768   1.699   7.592 -0.5221 -0.6176 -0.2375
 4079TIP3    H127904   2.696   1.711   7.654  0.4939  1.2859  0.6642
 4079TIP3    H227905   2.828   1.771   7.611  1.4351 -1.9050 -1.2344
 4080TIP3   OH227906   1.059   2.670   7.112  0.1439 -0.2556  0.0055
 4080TIP3    H127907   1.147   2.689   7.079  0.6982 -3.1584 -0.4975
 4080TIP3    H227908   1.004   2.672   7.034  0.5609 -2.3163 -0.4020
 4081TIP3   OH227909   5.034   6.265   0.635 -0.1002 -0.5044 -0.0336
 4081TIP3    H127910   4.983   6.259   0.555 -1.6751 -0.4768  0.9238
 4081TIP3    H227911   5.050   6.359   0.646  0.1156 -0.5082 -0.2993
 4082TIP3   OH227912   0.704   0.241   5.799 -0.4043 -0.0505 -0.2417
 4082TIP3    H127913   0.761   0.213   5.728 -1.4511  0.8148 -1.4718
 4082TIP3    H227914   0.701   0.167   5.859 -0.1295 -1.1052 -1.5043
 4083TIP3   OH227915   4.388   4.405   0.499 -0.0145  0.3834  0.1233
 4083TIP3    H127916   4.319   4.339   0.511 -0.7561  1.3905  1.8754
 4083TIP3    H227917   4.340   4.485   0.475  0.7653  0.5694 -0.8664
 4084TIP3   OH227918   5.637   4.489   1.468 -0.3222  0.4782 -0.5769
 4084TIP3    H127919   5.543   4.475   1.480 -0.6372  1.2681 -1.9689
 4084TIP3    H227920   5.645   4.529   1.381  1.4148 -0.7181 -1.0082
 4085TIP3   OH227921   3.650   5.962   6.412  0.3243  0.1637  0.6568
 4085TIP3    H127922   3.618   6.029   6.352  2.7648  0.7307 -0.1180
 4085TIP3    H227923   3.735   5.995   6.442  0.2242 -1.1817  2.6631
 4086TIP3   OH227924   3.902   2.244   7.427 -0.4458  0.3918  0.0637
 4086TIP3    H127925   3.976   2.299   7.454  0.1382 -0.6405  0.6188
 4086TIP3    H227926   3.845   2.304   7.379  1.5078  0.8961 -1.8175
 4087TIP3   OH227927   5.841   2.229   0.892 -0.2020  0.3074 -0.1092
 4087TIP3    H127928   5.794   2.196   0.815 -0.7499 -1.0624  0.7739
 4087TIP3    H227929   5.891   2.303   0.859 -0.4082 -0.2521 -1.7908
 4088TIP3   OH227930   5.646   4.946   1.006 -0.5214  0.1296 -1.1122
 4088TIP3    H127931   5.665   5.021   0.950  0.0609  1.0222  0.2221
 4088TIP3    H227932   5.633   4.984   1.093 -0.7867 -1.2726 -0.5079
 4089TIP3   OH227933   1.309   1.372   2.613  0.5101 -0.0357 -0.0263
 4089TIP3    H127934   1.366   1.316   2.560  0.3611  0.3559 -0.6019
 4089TIP3    H227935   1.240   1.313   2.644 -1.3333  0.3374 -3.0249
 4090TIP3   OH227936   4.712   0.052   7.412  0.1825 -0.0779  0.0982
 4090TIP3    H127937   4.673   0.089   7.333 -0.0640 -1.4991 -0.4826
 4090TIP3    H227938   4.638   0.038   7.472  0.0234 -1.1060 -0.3146
 4091TIP3   OH227939   1.576   4.545   0.341 -0.0768 -0.2652 -0.0907
 4091TIP3    H127940   1.550   4.616   0.281 -1.9227 -0.2802  0.6219
 4091TIP3    H227941   1.665   4.524   0.316  0.2646  1.8156 -0.8178
 4092TIP3   OH227942   4.123   1.079   0.336 -0.0569 -0.2206  0.3561
 4092TIP3    H127943   4.167   0.995   0.325  0.7464  0.2326  0.0642
 4092TIP3    H227944   4.076   1.093   0.253 -1.5423 -1.1317  0.9957
 4093TIP3   OH227945   0.459   2.482   1.704 -0.2293 -0.2740  0.0798
 4093TIP3    H127946   0.418   2.554   1.657  0.9714 -1.5055 -3.1116
 4093TIP3    H227947   0.389   2.443   1.756 -1.8409  0.7842 -1.2147
 4094TIP3   OH227948   1.687   1.699   7.318  0.4893  0.2542 -0.2876
 4094TIP3    H127949   1.624   1.763   7.285 -2.4014 -2.2490 -0.0610
 4094TIP3    H227950   1.710   1.731   7.405  1.6939  2.5920 -1.3894
 4095TIP3   OH227951   4.149   5.657   1.103  0.1591 -0.0920  0.1640
 4095TIP3    H127952   4.176   5.569   1.130 -2.0338 -0.6103  0.8439
 4095TIP3    H227953   4.150   5.708   1.184  0.8332  0.3566 -0.1223
 4096TIP3   OH227954   5.223   0.029   1.854  0.6080  0.1060  1.0138
 4096TIP3    H127955   5.139   0.020   1.810  1.3515  0.7123 -0.6348
 4096TIP3    H227956   5.202   0.029   1.947 -1.1032 -0.6732  0.6723
 4097TIP3   OH227957   0.158   5.531   5.660  0.0378  0.2512 -0.3061
 4097TIP3    H127958   0.248   5.565   5.659 -0.1293  0.7526  0.6990
 4097TIP3    H227959   0.115   5.580   5.730 -0.6160 -1.0130  0.1949
 4098TIP3   OH227960   0.320   1.885   1.621  0.1194 -0.4795 -0.7458
 4098TIP3    H127961   0.254   1.854   1.683  1.6897 -1.2040  0.6510
 4098TIP3    H227962   0.360   1.805   1.588 -1.1590 -0.1410 -3.3307
 4099TIP3   OH227963   3.238   0.272   1.272  0.7486  0.1355 -0.4176
 4099TIP3    H127964   3.236   0.236   1.361  0.9589  0.5640 -0.2398
 4099TIP3    H227965   3.160   0.326   1.266 -0.4133 -1.5251 -1.1947
 4100TIP3   OH227966   4.047   1.204   0.607 -0.8184 -0.6310 -0.2823
 4100TIP3    H127967   3.986   1.278   0.599  1.7486  1.4809 -2.1899
 4100TIP3    H227968   4.034   1.153   0.527  0.3300  0.2426 -1.0579
 4101TIP3   OH227969   1.039   5.635   7.601 -0.1020 -0.5372  0.2785
 4101TIP3    H127970   1.025   5.660   7.692 -1.1633  0.5838 -0.1541
 4101TIP3    H227971   1.057   5.541   7.604  1.6369 -0.2052  1.7773
 4102TIP3   OH227972   0.130   5.376   2.020 -0.0774 -0.2770 -0.0610
 4102TIP3    H127973   0.105   5.352   1.931 -0.7232 -2.9075  0.7508
 4102TIP3    H227974   0.075   5.322   2.076 -0.0377  1.6678  1.9904
 4103TIP3   OH227975   4.196   4.286   1.215 -0.8210 -0.4443  0.0906
 4103TIP3    H127976   4.252   4.248   1.147  0.4810  1.0629  0.2555
 4103TIP3    H227977   4.127   4.332   1.167  0.6813  1.5118 -0.3347
 4104TIP3   OH227978   2.767   0.643   6.708  0.2559 -0.2074 -0.1370
 4104TIP3    H127979   2.675   0.638   6.733 -0.1163  0.0848 -1.3500
 4104TIP3    H227980   2.766   0.686   6.622  1.6285  0.9848  0.4029
 4105TIP3   OH227981   0.453   4.949   0.879 -0.5101  0.3698  0.3255
 4105TIP3    H127982   0.430   4.889   0.950  0.5532 -0.9430 -0.3991
 4105TIP3    H227983   0.372   4.999   0.864 -1.6856 -1.3811  0.4810
 4106TIP3   OH227984   1.777   3.222   1.353  0.2427 -0.0707  0.3972
 4106TIP3    H127985   1.833   3.199   1.426  3.3897  1.8561 -1.1532
 4106TIP3    H227986   1.831   3.206   1.275 -1.0100  2.5865 -1.1908
 4107TIP3   OH227987   0.619   4.283   6.826 -1.1505 -0.0485  0.4103
 4107TIP3    H127988   0.606   4.341   6.751  0.7494  1.4579  1.1602
 4107TIP3    H227989   0.579   4.329   6.900  1.2709  0.9250  1.2122
 4108TIP3   OH227990   5.446   0.401   6.543  0.0218 -0.8428 -0.1674
 4108TIP3    H127991   5.407   0.475   6.497 -1.8299 -1.4549  0.3357
 4108TIP3    H227992   5.466   0.435   6.630  0.7501 -0.4963 -0.4618
 4109TIP3   OH227993   3.874   4.170   7.547 -0.3142 -0.3259 -0.0948
 4109TIP3    H127994   3.929   4.095   7.524  0.5107 -0.0040  0.7441
 4109TIP3    H227995   3.841   4.202   7.464  1.2666 -0.1806 -0.7104
 4110TIP3   OH227996   1.035   0.785   0.495 -0.2747 -0.4011  0.0607
 4110TIP3    H127997   1.008   0.764   0.406  1.2687 -1.5959 -0.1626
 4110TIP3    H227998   0.961   0.757   0.549 -1.3737  0.6655 -0.8320
 4111TIP3   OH227999   1.831   1.984   2.691  0.6159  0.2524 -0.1763
 4111TIP3    H128000   1.920   1.976   2.728 -0.3752 -0.8226  2.2003
 4111TIP3    H228001   1.823   2.076   2.668  1.9532  0.6289  0.7067
 4112TIP3   OH228002   0.890   0.212   6.730 -0.6893 -0.5233  0.0343
 4112TIP3    H128003   0.801   0.248   6.735 -0.7889 -0.9027  1.6690
 4112TIP3    H228004   0.878   0.118   6.745 -0.1537 -0.8534 -1.4432
 4113TIP3   OH228005   0.245   1.284   1.744 -0.3526  0.0699 -0.1522
 4113TIP3    H128006   0.223   1.370   1.707  1.0471 -0.2080 -1.7461
 4113TIP3    H228007   0.318   1.302   1.803  0.6530 -0.1504 -1.3080
 4114TIP3   OH228008   1.369   0.224   7.523  0.2277 -0.0965  0.3068
 4114TIP3    H128009   1.292   0.208   7.578 -1.0655  1.7026 -0.8627
 4114TIP3    H228010   1.440   0.238   7.585 -1.0214  1.1012  1.5582
 4115TIP3   OH228011   5.790   3.606   7.135 -0.0314  0.1341  0.7986
 4115TIP3    H128012   5.792   3.699   7.158  0.9592  0.1485  0.7170
 4115TIP3    H228013   5.883   3.582   7.124 -0.1861 -1.1837  2.1011
 4116TIP3   OH228014   5.904   3.801   0.968  0.5445 -0.4980 -0.0597
 4116TIP3    H128015   5.958   3.756   0.903 -0.3968 -0.8252 -0.6455
 4116TIP3    H228016   5.822   3.752   0.968  0.1933  0.0698  0.7049
 4117TIP3   OH228017   0.131   4.234   6.326  0.2416 -0.4330  0.3513
 4117TIP3    H128018   0.064   4.253   6.260  0.6158 -0.1421  0.0525
 4117TIP3    H228019   0.207   4.206   6.275  0.4731 -0.3755  0.6664
 4118TIP3   OH228020   2.625   1.681   0.109 -0.1942  0.2038 -0.0610
 4118TIP3    H128021   2.531   1.690   0.124 -0.0875 -0.1424  0.8602
 4118TIP3    H228022   2.665   1.739   0.173  0.2319  0.3774 -0.4754
 4119TIP3   OH228023   5.943   4.799   1.120 -0.3618  0.0023 -0.1950
 4119TIP3    H128024   5.848   4.794   1.127 -0.3599  0.7192  0.6462
 4119TIP3    H228025   5.969   4.717   1.079 -1.3663 -0.0533 -0.7501
 4120TIP3   OH228026   0.436   5.972   6.277 -0.1386 -0.0699  0.6912
 4120TIP3    H128027   0.397   5.929   6.201 -0.0880 -0.2025  0.7395
 4120TIP3    H228028   0.462   6.058   6.245 -0.2393 -0.0752  0.5928
 4121TIP3   OH228029   4.119   1.259   1.157 -0.2510  0.8749 -0.5159
 4121TIP3    H128030   4.187   1.201   1.191 -1.2983  0.4712  1.0331
 4121TIP3    H228031   4.118   1.242   1.063  1.1788  0.2548 -0.4527
 4122TIP3   OH228032   4.617   1.137   0.049 -0.3663 -0.4219  0.4810
 4122TIP3    H128033   4.649   1.071   0.109 -1.3473 -1.5674 -0.2174
 4122TIP3    H228034   4.680   1.209   0.056  0.0416 -0.9083  2.1522
 4123TIP3   OH228035   5.914   1.552   0.939  0.3084  0.9433 -0.0085
 4123TIP3    H128036   5.887   1.607   0.866 -1.3469 -1.0349 -0.9800
 4123TIP3    H228037   5.975   1.489   0.901  0.1619  0.4766  0.5149
 4124TIP3   OH228038   4.715   3.171   1.809  0.3919  0.2562 -0.4126
 4124TIP3    H128039   4.790   3.204   1.760  0.5635 -1.2780 -1.2700
 4124TIP3    H228040   4.752   3.127   1.885  0.5308 -1.7674 -1.5818
 4125TIP3   OH228041   5.591   3.401   7.530 -0.2689 -0.5472 -0.0670
 4125TIP3    H128042   5.603   3.314   7.492  1.8624  0.5515 -2.1446
 4125TIP3    H228043   5.531   3.446   7.471 -0.9509 -0.3993  0.7118
 4126TIP3   OH228044   5.530   0.897   1.746 -0.6212 -0.3187 -0.4754
 4126TIP3    H128045   5.442   0.925   1.721 -0.9522 -2.6455 -2.3067
 4126TIP3    H228046   5.564   0.853   1.668  0.9851 -2.1270  1.1316
 4127TIP3   OH228047   3.015   1.668   2.895  0.0257  0.4195  0.2340
 4127TIP3    H128048   3.100   1.685   2.856 -0.4360  0.4567 -0.7801
 4127TIP3    H228049   3.017   1.716   2.978  1.8571 -1.4802  1.3728
 4128TIP3   OH228050   0.278   3.462   2.009  0.2160 -0.4095 -0.4885
 4128TIP3    H128051   0.323   3.466   2.093 -0.9012 -0.1231  0.1153
 4128TIP3    H228052   0.186   3.480   2.029 -0.0595 -0.2012 -1.7893
 4129TIP3   OH228053   2.400   6.257   0.438 -0.8905 -0.1407 -0.1699
 4129TIP3    H128054   2.471   6.288   0.382 -0.3580 -2.7744 -1.1071
 4129TIP3    H228055   2.365   6.336   0.480  3.4351  1.1941  1.4331
 4130TIP3   OH228056   2.918   4.923   0.698  0.1464  0.6941 -0.5877
 4130TIP3    H128057   2.915   4.827   0.701 -0.1531  0.5959 -2.5975
 4130TIP3    H228058   2.827   4.950   0.691  0.2418  1.1180 -0.2142
 4131TIP3   OH228059   0.411   2.099   7.087 -0.5161  0.0858  0.1995
 4131TIP3    H128060   0.460   2.071   7.010 -0.8105  3.2702 -1.3168
 4131TIP3    H228061   0.319   2.085   7.063 -0.6017  0.9367 -0.0087
 4132TIP3   OH228062   1.078   3.664   7.415 -0.6270 -0.3508 -0.1951
 4132TIP3    H128063   1.130   3.595   7.375 -0.4464 -0.0625 -0.4559
 4132TIP3    H228064   1.088   3.739   7.357 -0.9151 -0.1381  0.0268
 4133TIP3   OH228065   4.693   5.162   0.549  0.2802  0.4135 -0.4949
 4133TIP3    H128066   4.739   5.164   0.633 -0.8072  0.6635  0.1114
 4133TIP3    H228067   4.620   5.102   0.563  0.9311 -0.7244 -1.7332
 4134TIP3   OH228068   0.615   1.812   7.566 -0.0745  0.4161 -0.1235
 4134TIP3    H128069   0.551   1.867   7.521  0.7440  0.3283 -1.4829
 4134TIP3    H228070   0.664   1.872   7.622 -1.1793  0.5179  0.7550
 4135TIP3   OH228071   0.958   1.077   0.590 -0.0555  0.1385 -0.4536
 4135TIP3    H128072   1.034   1.133   0.569  0.2145  0.5451  1.4356
 4135TIP3    H228073   0.981   0.991   0.555  0.8459  0.5008 -0.7782
 4136TIP3   OH228074   3.044   1.332   6.478 -0.1283  0.6356  0.1448
 4136TIP3    H128075   3.058   1.242   6.447  2.1150  1.0246 -0.1157
 4136TIP3    H228076   3.052   1.386   6.400  0.9657  1.2341  0.6413
 4137TIP3   OH228077   1.410   0.705   1.741 -0.2207 -0.1219  0.4558
 4137TIP3    H128078   1.351   0.646   1.695 -1.9456  1.5741  0.3510
 4137TIP3    H228079   1.365   0.725   1.824  0.8310  0.1940  0.9763
 4138TIP3   OH228080   5.894   0.875   0.099  0.6403 -0.0543 -0.0265
 4138TIP3    H128081   5.979   0.908   0.125  0.9849  0.3711 -1.6306
 4138TIP3    H228082   5.912   0.814   0.028 -0.1150 -2.5852  1.7765
 4139TIP3   OH228083   3.701   0.206   7.666 -0.3715 -0.0981  0.3416
 4139TIP3    H128084   3.766   0.240   7.604 -0.6208  1.2821  0.7903
 4139TIP3    H228085   3.741   0.128   7.703  1.1718  0.8504  0.7837
 4140TIP3   OH228086   2.113   5.560   0.750  0.4374  0.1451  0.3674
 4140TIP3    H128087   2.080   5.649   0.736 -0.2710  0.0545  1.3232
 4140TIP3    H228088   2.158   5.537   0.668 -0.2455  0.9968 -0.2620
 4141TIP3   OH228089   4.366   1.574   1.499  0.4194  0.2252 -0.1952
 4141TIP3    H128090   4.438   1.601   1.443  1.0025 -0.1256  0.3715
 4141TIP3    H228091   4.309   1.522   1.442  0.6284  0.4702 -0.6324
 4142TIP3   OH228092   1.529   3.317   6.293 -0.0474  0.0778  0.1305
 4142TIP3    H128093   1.544   3.245   6.232 -0.7420 -1.3682  1.5900
 4142TIP3    H228094   1.434   3.316   6.308  0.0014  0.9844  0.5429
 4143TIP3   OH228095   2.439   1.268   2.059  0.1783  0.0510 -0.1514
 4143TIP3    H128096   2.470   1.181   2.032  0.5268  0.5256 -1.3565
 4143TIP3    H228097   2.489   1.287   2.139 -1.6178 -1.8294  1.5251
 4144TIP3   OH228098   2.319   4.062   7.310 -0.1781  0.6713  0.2104
 4144TIP3    H128099   2.357   4.117   7.241  1.0224 -0.6843 -0.2697
 4144TIP3    H228100   2.393   4.040   7.367 -0.5092 -0.7497  0.1437
 4145TIP3   OH228101   3.097   6.265   6.914 -0.1080  0.5538  0.1337
 4145TIP3    H128102   3.097   6.180   6.957  1.0786  1.5813  2.3077
 4145TIP3    H228103   3.004   6.284   6.899 -0.4065 -0.9259 -0.0386
 4146TIP3   OH228104   3.370   0.160   0.399  0.5005 -0.7833  0.2173
 4146TIP3    H128105   3.444   0.173   0.458  0.6284 -2.3706  0.4565
 4146TIP3    H228106   3.405   0.107   0.328  0.3806  1.2336 -1.4212
 4147TIP3   OH228107   2.465   0.977   1.966 -0.3331  0.0285 -0.1843
 4147TIP3    H128108   2.526   1.023   1.909  0.1384 -0.3799 -0.0064
 4147TIP3    H228109   2.421   0.914   1.909  0.6533 -0.8840  0.0415
 4148TIP3   OH228110   3.844   5.936   6.937  0.1052 -0.7277  0.1728
 4148TIP3    H128111   3.928   5.896   6.961  0.1868 -0.8584 -0.3072
 4148TIP3    H228112   3.811   5.975   7.018  0.6125 -0.7066  0.3705
 4149TIP3   OH228113   2.583   1.427   6.229 -0.3244 -0.0024  0.3174
 4149TIP3    H128114   2.655   1.412   6.290 -0.3200 -0.7472  0.1400
 4149TIP3    H228115   2.511   1.459   6.284 -0.0745  0.0903  0.5937
 4150TIP3   OH228116   5.589   1.549   0.412 -0.3045  0.6596 -0.4190
 4150TIP3    H128117   5.529   1.497   0.359 -1.2937  1.5151 -0.1705
 4150TIP3    H228118   5.561   1.534   0.502  0.2886  0.5370 -0.2518
 4151TIP3   OH228119   0.772   0.769   1.828 -0.3833  0.0645 -0.0330
 4151TIP3    H128120   0.789   0.676   1.842  0.5202  0.6250  3.7001
 4151TIP3    H228121   0.706   0.792   1.893 -0.8515  1.9916 -1.0983
 4152TIP3   OH228122   5.502   1.443   7.262  1.0719  0.2158 -0.2909
 4152TIP3    H128123   5.568   1.441   7.192 -0.2543 -1.1642 -1.5725
 4152TIP3    H228124   5.419   1.429   7.217 -0.0901  1.5484  1.3303
 4153TIP3   OH228125   2.138   2.956   1.515 -0.0909  0.2478 -0.0260
 4153TIP3    H128126   2.187   2.931   1.437 -1.8759  0.6847 -1.3523
 4153TIP3    H228127   2.157   2.887   1.579  1.8338  0.1615 -0.6200
 4154TIP3   OH228128   4.659   3.494   7.002  0.0513 -0.0491 -0.2410
 4154TIP3    H128129   4.680   3.401   6.998 -1.7224 -0.4872 -0.0983
 4154TIP3    H228130   4.737   3.538   6.968  1.2181 -1.5316  0.4262
 4155TIP3   OH228131   0.151   1.686   0.370 -0.1654 -0.3625 -0.1269
 4155TIP3    H128132   0.061   1.681   0.401  0.5407 -0.5717  2.0768
 4155TIP3    H228133   0.174   1.596   0.348 -0.3435 -0.3861 -0.2177
 4156TIP3   OH228134   0.215   5.439   6.291 -0.0044 -0.2228  0.7446
 4156TIP3    H128135   0.257   5.523   6.308 -0.3273  0.1863 -0.3792
 4156TIP3    H228136   0.240   5.417   6.201 -1.4988 -0.3756  0.3378
 4157TIP3   OH228137   1.733   4.771   1.909 -0.6618  0.8306  0.1252
 4157TIP3    H128138   1.699   4.813   1.830  0.5159  3.4957  0.9069
 4157TIP3    H228139   1.669   4.795   1.977 -0.4947  0.5060  0.3958
 4158TIP3   OH228140   2.462   2.329   0.964  0.8295  0.6549 -0.4578
 4158TIP3    H128141   2.538   2.292   0.919  1.3355 -0.0825  0.9388
 4158TIP3    H228142   2.499   2.381   1.035  0.0637 -0.5512  0.8878
 4159TIP3   OH228143   2.063   3.348   1.466  0.1530 -0.1395  0.4738
 4159TIP3    H128144   2.021   3.265   1.488  0.5620 -0.4104  0.2498
 4159TIP3    H228145   1.993   3.400   1.426 -0.0556 -0.4525  0.4231
 4160TIP3   OH228146   0.982   4.397   2.491 -0.3941 -0.4522 -0.6444
 4160TIP3    H128147   0.949   4.323   2.441 -1.1150  0.7262 -2.0142
 4160TIP3    H228148   0.904   4.449   2.511  0.0353 -0.2978  0.7217
 4161TIP3   OH228149   1.402   0.133   1.693 -0.7572 -0.4238 -0.1739
 4161TIP3    H128150   1.450   0.072   1.636 -0.5457 -1.1348  0.7483
 4161TIP3    H228151   1.437   0.117   1.780 -0.9613  0.7820  0.1402
 4162TIP3   OH228152   4.580   3.978   2.099  0.4427  0.3454  0.5725
 4162TIP3    H128153   4.624   4.001   2.017 -0.7815 -2.2736 -0.9486
 4162TIP3    H228154   4.651   3.954   2.158  1.3029  0.7662 -0.2631
 4163TIP3   OH228155   2.947   3.990   0.188  0.4709 -0.5795  0.0889
 4163TIP3    H128156   2.962   3.906   0.232 -0.3159 -0.4814  0.5761
 4163TIP3    H228157   2.867   4.024   0.229 -1.0450 -1.0684 -2.2838
 4164TIP3   OH228158   5.137   3.141   6.321 -0.4435 -0.0960  0.1005
 4164TIP3    H128159   5.129   3.163   6.414 -0.3314 -1.4370  0.4474
 4164TIP3    H228160   5.076   3.068   6.308  0.2288 -0.5316 -0.6659
 4165TIP3   OH228161   5.732   3.976   1.389 -0.4928 -0.3291  0.1917
 4165TIP3    H128162   5.701   3.890   1.413  1.2553 -1.4183 -1.1686
 4165TIP3    H228163   5.674   4.005   1.318 -0.5447 -0.7906  0.0468
 4166TIP3   OH228164   2.992   5.801   0.557 -0.0337 -0.3594 -0.5588
 4166TIP3    H128165   2.967   5.853   0.633  0.6600  0.9870 -1.2166
 4166TIP3    H228166   2.960   5.713   0.576  0.1839 -0.0657  1.2998
 4167TIP3   OH228167   5.853   1.667   0.670 -0.1246 -0.2229  0.0060
 4167TIP3    H128168   5.853   1.754   0.630 -0.1005 -0.7481 -1.1731
 4167TIP3    H228169   5.936   1.629   0.644  0.2209 -0.3046  1.1995
 4168TIP3   OH228170   0.752   5.639   0.527 -0.2370  0.1759  0.0804
 4168TIP3    H128171   0.700   5.682   0.595  0.4843  0.4312  0.4824
 4168TIP3    H228172   0.784   5.559   0.569  0.5328  0.5255  0.1886
 4169TIP3   OH228173   0.644   1.513   1.824  0.5907 -0.0808  0.0387
 4169TIP3    H128174   0.692   1.576   1.770  0.5686 -3.4854 -4.5897
 4169TIP3    H228175   0.699   1.500   1.901  1.9868  3.2717 -0.2125
 4170TIP3   OH228176   1.540   0.954   2.144 -0.2863  0.2497  0.0923
 4170TIP3    H128177   1.456   0.908   2.150 -0.0276 -0.0973  1.6263
 4170TIP3    H228178   1.562   0.974   2.235  1.2309  0.4685 -0.2982
 4171TIP3   OH228179   5.968   1.194   7.437  0.2851 -0.3185 -0.3564
 4171TIP3    H128180   6.015   1.176   7.519  1.0025  0.8638 -0.4880
 4171TIP3    H228181   5.997   1.125   7.378 -0.0928 -1.0745  0.3157
 4172TIP3   OH228182   2.783   3.627   7.618 -0.5228  0.0254  0.0033
 4172TIP3    H128183   2.698   3.592   7.590 -1.2124 -1.1494  3.1232
 4172TIP3    H228184   2.841   3.552   7.618  0.2526  0.6001 -1.0052
 4173TIP3   OH228185   1.643   5.554   1.656 -0.2588 -0.0422  0.7854
 4173TIP3    H128186   1.612   5.586   1.571 -0.5868  2.7056  1.8513
 4173TIP3    H228187   1.739   5.552   1.646 -0.2527  0.8755  0.5011
 4174TIP3   OH228188   3.379   1.712   7.083  0.5965  0.1109  0.3772
 4174TIP3    H128189   3.466   1.734   7.118 -0.3427  0.8214  2.3870
 4174TIP3    H228190   3.360   1.781   7.020  0.7380  1.0026  1.2891
 4175TIP3   OH228191   0.367   3.550   1.749  0.6139  0.0858  0.1851
 4175TIP3    H128192   0.457   3.578   1.761 -0.0830  2.0461  1.3374
 4175TIP3    H228193   0.349   3.494   1.825  0.8969 -0.4178 -0.1186
 4176TIP3   OH228194   1.882   5.615   6.758  0.0995  0.0828  0.2126
 4176TIP3    H128195   1.896   5.521   6.770  0.2262 -0.1545 -1.4688
 4176TIP3    H228196   1.954   5.656   6.806  1.3391 -0.7877 -0.8170
 4177TIP3   OH228197   2.423   2.609   1.449 -0.0983  0.3137 -0.3969
 4177TIP3    H128198   2.386   2.534   1.402  1.8825 -0.8222 -0.2534
 4177TIP3    H228199   2.352   2.639   1.505 -0.8037 -1.7859 -0.0700
 4178TIP3   OH228200   0.931   4.938   7.161 -0.1591 -0.3592 -0.3910
 4178TIP3    H128201   0.844   4.973   7.143 -0.4916 -1.1760 -0.4080
 4178TIP3    H228202   0.933   4.924   7.255  0.2893  0.5063 -0.2571
 4179TIP3   OH228203   1.193   4.997   1.326  0.2409  0.4664 -0.3664
 4179TIP3    H128204   1.282   4.996   1.361 -0.6170  1.5781  2.0273
 4179TIP3    H228205   1.184   4.912   1.282  1.6949 -0.7167  1.4664
 4180TIP3   OH228206   2.575   4.371   6.227 -0.2381  0.3573  0.1368
 4180TIP3    H128207   2.561   4.280   6.254 -0.4522 -0.3214 -2.0134
 4180TIP3    H228208   2.658   4.369   6.179 -1.0540  0.8921 -1.3833
 4181TIP3   OH228209   0.046   0.479   7.527  0.2635 -0.0467 -0.1151
 4181TIP3    H128210  -0.015   0.419   7.483 -2.2291  0.9395  1.7620
 4181TIP3    H228211   0.117   0.422   7.558 -1.7619 -2.0307  1.1666
 4182TIP3   OH228212   4.720   2.238   0.847  0.2189 -0.2042  0.0606
 4182TIP3    H128213   4.667   2.193   0.914  0.8299 -0.6117  0.2842
 4182TIP3    H228214   4.789   2.175   0.827  1.2252  0.7315  0.5353
 4183TIP3   OH228215   5.241   1.370   6.476  0.5158  0.1405 -0.2830
 4183TIP3    H128216   5.155   1.399   6.508 -1.1244 -1.8377 -2.5596
 4183TIP3    H228217   5.304   1.421   6.528 -1.9855  1.5699  1.5885
 4184TIP3   OH228218   6.145   0.909   1.537  0.1461 -0.1328 -0.2709
 4184TIP3    H128219   6.203   0.979   1.567  0.0109  0.1328 -0.6201
 4184TIP3    H228220   6.065   0.922   1.589  0.4329 -0.5660  0.2882
 4185TIP3   OH228221   2.204   0.165   1.857 -0.2928 -0.1155 -0.0814
 4185TIP3    H128222   2.292   0.137   1.885 -0.1869 -1.0112 -1.2664
 4185TIP3    H228223   2.144   0.112   1.910 -0.1907  1.3705  1.6464
 4186TIP3   OH228224   3.142   2.031   1.145  0.2700  0.3778 -0.0739
 4186TIP3    H128225   3.142   2.117   1.102  0.8984 -0.1837 -1.2280
 4186TIP3    H228226   3.067   2.035   1.205 -0.5073  1.2705 -1.0530
 4187TIP3   OH228227   3.387   5.922   0.303 -0.0996  0.0860 -0.2531
 4187TIP3    H128228   3.413   5.838   0.342  0.1957  0.3380  0.0918
 4187TIP3    H228229   3.302   5.941   0.343 -0.1928 -0.0758 -0.3731
 4188TIP3   OH228230   1.967   2.506   1.260  0.6698 -0.0359  0.1253
 4188TIP3    H128231   2.023   2.559   1.203 -0.7389  1.0843 -0.2647
 4188TIP3    H228232   1.950   2.561   1.336 -1.0061  0.2306 -0.3968
 4189TIP3   OH228233   5.753   1.350   0.633  0.2279  0.1219  0.6154
 4189TIP3    H128234   5.821   1.413   0.658  1.4815 -0.1597 -1.7500
 4189TIP3    H228235   5.745   1.360   0.538  3.0310 -5.4481 -0.6689
 4190TIP3   OH228236   4.801   3.297   6.394 -0.0554 -0.5555 -0.2928
 4190TIP3    H128237   4.791   3.220   6.338 -1.5807  0.7785 -2.0095
 4190TIP3    H228238   4.772   3.370   6.339  1.5009  1.2902  1.1918
 4191TIP3   OH228239   2.798   1.092   7.365 -0.1376  0.1399 -0.4415
 4191TIP3    H128240   2.787   1.103   7.271 -1.2423 -1.2819 -0.5028
 4191TIP3    H228241   2.806   0.997   7.378 -0.5906  0.2696  0.9570
 4192TIP3   OH228242   6.050   1.490   0.542  0.3302  0.7009 -0.3595
 4192TIP3    H128243   6.143   1.481   0.562  0.5941  1.5922 -1.1474
 4192TIP3    H228244   6.038   1.437   0.463  0.6004  2.1434 -1.4045
 4193TIP3   OH228245   1.308   4.467   0.857  0.0925  0.0005 -0.4052
 4193TIP3    H128246   1.295   4.386   0.905  1.4928  0.2223  0.4040
 4193TIP3    H228247   1.234   4.522   0.882 -1.3372 -1.2833 -1.6230
 4194TIP3   OH228248   4.180   1.976   5.963  0.0925 -0.4583 -0.0908
 4194TIP3    H128249   4.179   1.927   5.880 -0.8176 -1.9361  0.7406
 4194TIP3    H228250   4.089   1.975   5.991  0.2162  0.9838  0.4122
 4195TIP3   OH228251   5.745   0.610   7.655  0.0751 -0.7681  0.2688
 4195TIP3    H128252   5.677   0.665   7.694  0.0646 -1.1570  0.8112
 4195TIP3    H228253   5.757   0.646   7.567 -0.5724 -0.4654  0.2960
 4196TIP3   OH228254   4.455   5.985   0.648  0.1772  0.3328  0.1996
 4196TIP3    H128255   4.549   5.972   0.663  1.1743  3.4594 -2.1636
 4196TIP3    H228256   4.432   5.922   0.580  0.7923  0.0706  0.2318
 4197TIP3   OH228257   4.513   4.589   1.203 -0.6729 -0.1035  0.4381
 4197TIP3    H128258   4.500   4.527   1.276  0.6990 -0.4418  0.4063
 4197TIP3    H228259   4.429   4.634   1.197 -0.9495 -0.3206  2.0015
 4198TIP3   OH228260   5.793   0.837   2.164  0.4345 -0.0876  0.2612
 4198TIP3    H128261   5.760   0.859   2.252 -0.5736  1.7142 -0.5154
 4198TIP3    H228262   5.714   0.827   2.111  1.0473 -0.7716 -0.5345
 4199TIP3   OH228263   2.212   1.021   0.867  0.2089  0.0554 -0.4681
 4199TIP3    H128264   2.125   1.041   0.900 -0.3006 -0.0788 -1.7017
 4199TIP3    H228265   2.254   0.973   0.939 -0.2687  1.2280  0.6150
 4200TIP3   OH228266   2.170   0.611   2.823  0.5494  0.4152  0.8063
 4200TIP3    H128267   2.127   0.543   2.771 -0.2033  2.7565 -1.8658
 4200TIP3    H228268   2.228   0.563   2.882 -0.4087 -2.5386 -0.4694
 4201TIP3   OH228269   1.601   0.905   0.630 -0.3559 -0.3832  0.0079
 4201TIP3    H128270   1.654   0.890   0.552 -0.4034  1.0857 -0.3539
 4201TIP3    H228271   1.608   0.825   0.681  0.7657 -0.8709 -0.8782
 4202TIP3   OH228272   2.660   1.265   0.204  0.3300 -0.1996  0.8371
 4202TIP3    H128273   2.671   1.339   0.145 -1.8758  0.2369  0.8956
 4202TIP3    H228274   2.684   1.299   0.291  0.3897  0.1021  0.7014
 4203TIP3   OH228275   6.058   1.422   7.170  0.5347  0.8211  0.7626
 4203TIP3    H128276   6.091   1.481   7.102 -0.3224  0.6039  0.1495
 4203TIP3    H228277   5.989   1.372   7.128  1.6337 -1.0774  1.0973
 4204TIP3   OH228278   3.788   1.540   2.160  0.0888  0.4144  0.7496
 4204TIP3    H128279   3.879   1.517   2.178  0.6119  1.3228 -0.5552
 4204TIP3    H228280   3.738   1.466   2.192  1.4810 -1.2219 -0.6626
 4205TIP3   OH228281   3.720   6.251   2.355 -0.0528 -0.6096 -0.1665
 4205TIP3    H128282   3.650   6.267   2.418 -0.6529  1.0486 -1.1898
 4205TIP3    H228283   3.678   6.206   2.282  0.0124  0.0375 -0.6131
 4206TIP3   OH228284   2.156   5.847   0.325  0.1364 -0.0811 -0.5895
 4206TIP3    H128285   2.144   5.779   0.392  0.2522 -0.8544 -1.3313
 4206TIP3    H228286   2.222   5.906   0.362 -1.9653  1.2652  1.2870
 4207TIP3   OH228287   5.295   0.688   2.668 -0.4517 -0.0847 -0.4484
 4207TIP3    H128288   5.357   0.747   2.710 -0.4033  0.0356 -0.6890
 4207TIP3    H228289   5.216   0.741   2.654 -0.4260 -0.0904 -0.6172
 4208TIP3   OH228290   4.193   0.398   1.349 -0.1115  0.2991 -0.0442
 4208TIP3    H128291   4.267   0.430   1.298  1.2445  0.3925  1.8657
 4208TIP3    H228292   4.200   0.445   1.433 -1.3508 -0.9202  0.7851
 4209TIP3   OH228293   0.375   1.611   5.899 -0.0443  0.1993  0.3042
 4209TIP3    H128294   0.289   1.631   5.862  0.3175  1.1639 -0.0675
 4209TIP3    H228295   0.370   1.519   5.924 -0.1880 -0.6738 -2.5784
 4210TIP3   OH228296   2.286   0.712   6.610 -0.2515  0.5371  0.1717
 4210TIP3    H128297   2.270   0.714   6.704  0.1236 -0.3900  0.2615
 4210TIP3    H228298   2.205   0.747   6.571 -1.1319 -0.7774  0.7659
 4211TIP3   OH228299   3.202   5.293   2.116  0.1156 -0.1053 -0.0728
 4211TIP3    H128300   3.270   5.226   2.107 -1.2050 -1.7827  1.6285
 4211TIP3    H228301   3.207   5.320   2.207 -0.9039  0.4227 -0.1586
 4212TIP3   OH228302   1.446   3.320   7.461  0.4687 -0.1917  0.8530
 4212TIP3    H128303   1.486   3.303   7.376  1.7983 -0.7600  1.5581
 4212TIP3    H228304   1.447   3.235   7.506 -2.3265 -0.4167  0.6232
 4213TIP3   OH228305   1.084   2.691   1.789 -0.4352  0.2985  0.2406
 4213TIP3    H128306   1.133   2.663   1.711 -3.7965 -1.0437 -1.6401
 4213TIP3    H228307   1.151   2.707   1.855  2.6189  1.0340 -2.7289
 4214TIP3   OH228308   0.876   3.803   5.963 -0.0958 -0.0943 -0.2305
 4214TIP3    H128309   0.907   3.893   5.974 -1.3872  0.2421  0.9766
 4214TIP3    H228310   0.822   3.807   5.884  0.0665  0.1284 -0.3334
 4215TIP3   OH228311   0.512   6.209   7.304  0.1846  0.1628 -0.2743
 4215TIP3    H128312   0.481   6.142   7.242 -2.7039  0.5616  0.5979
 4215TIP3    H228313   0.560   6.159   7.370  0.3834 -0.6987 -1.0391
 4216TIP3   OH228314   5.712   5.495   7.443 -0.4867 -0.7494  0.3556
 4216TIP3    H128315   5.619   5.520   7.445 -0.6551 -1.3886  0.7283
 4216TIP3    H228316   5.713   5.410   7.399 -0.2337 -1.3469  1.4771
 4217TIP3   OH228317   0.003   4.650   2.292  0.1701 -0.1744 -0.1784
 4217TIP3    H128318  -0.042   4.716   2.240  0.1634  0.1429  0.2215
 4217TIP3    H228319  -0.067   4.607   2.342  0.1990 -0.3342 -0.2765
 4218TIP3   OH228320   3.566   5.157   0.463 -0.3708 -0.0176  0.3157
 4218TIP3    H128321   3.571   5.068   0.427  2.0041 -1.2149  3.1650
 4218TIP3    H228322   3.649   5.198   0.438 -0.5289  0.6322  0.8257
 4219TIP3   OH228323   0.109   1.366   6.331 -0.2549  0.7892  0.2542
 4219TIP3    H128324   0.147   1.288   6.291  1.2438  0.6364  1.8682
 4219TIP3    H228325   0.100   1.428   6.258  1.3467  0.1478 -0.5466
 4220TIP3   OH228326   3.292   5.304   0.204  0.3767  0.4258  0.1160
 4220TIP3    H128327   3.215   5.292   0.150  0.0467  1.9718  0.2162
 4220TIP3    H228328   3.357   5.343   0.145  1.3347 -1.4378 -0.1380
 4221TIP3   OH228329   3.385   6.181   1.558 -0.5615 -0.0288 -0.3555
 4221TIP3    H128330   3.454   6.217   1.614 -0.3670 -1.4879  0.3775
 4221TIP3    H228331   3.304   6.197   1.606 -0.5220 -0.1989 -0.2342
 4222TIP3   OH228332   5.660   2.303   0.278 -0.5856 -0.1140 -0.2369
 4222TIP3    H128333   5.656   2.398   0.265 -1.1643 -0.0613  0.2495
 4222TIP3    H228334   5.645   2.266   0.191 -1.5466  0.2386 -0.2327
 4223TIP3   OH228335   6.115   1.267   6.888  0.0285  0.0025  0.1474
 4223TIP3    H128336   6.064   1.295   6.812  0.7867 -1.1378 -0.8205
 4223TIP3    H228337   6.194   1.321   6.887  0.4024 -0.5423 -0.3495
 4224TIP3   OH228338   5.358   6.059   6.840 -0.3976 -0.6486  0.3014
 4224TIP3    H128339   5.355   6.022   6.929 -0.5596 -0.6143  0.3111
 4224TIP3    H228340   5.321   6.147   6.850  0.1070 -0.4348  0.3012
 4225TIP3   OH228341   3.858   3.230   1.129  0.0761 -0.3387 -0.0918
 4225TIP3    H128342   3.774   3.247   1.173 -0.1590 -0.3244 -0.5368
 4225TIP3    H228343   3.850   3.140   1.097  1.4164 -1.4871  2.4987
 4226TIP3   OH228344   4.681   3.714   7.758  0.4604  0.5993 -0.2805
 4226TIP3    H128345   4.764   3.700   7.802 -0.2893  0.4233  1.1322
 4226TIP3    H228346   4.674   3.810   7.751  0.1319  0.6858  0.9468
 4227TIP3   OH228347   0.664   0.894   6.716 -0.0214 -0.0649 -0.1783
 4227TIP3    H128348   0.745   0.878   6.667  0.0703 -0.3757  0.0629
 4227TIP3    H228349   0.595   0.894   6.650  0.1822  0.2538 -0.3918
 4228TIP3   OH228350   3.964   1.086   6.061  0.1735 -0.1598  0.9940
 4228TIP3    H128351   3.960   1.115   5.970 -2.7277 -0.6611  0.8932
 4228TIP3    H228352   4.033   1.019   6.062  1.5106  1.1200 -0.3949
 4229TIP3   OH228353   1.051   0.372   0.016  0.1689 -0.4304 -0.1443
 4229TIP3    H128354   1.093   0.457   0.001 -1.6270  0.8639  1.6415
 4229TIP3    H228355   1.124   0.312   0.031  1.4601  0.9398 -0.6405
 4230TIP3   OH228356   2.531   5.482   5.963  0.4482  0.5343 -0.0822
 4230TIP3    H128357   2.523   5.402   6.015  0.3367  0.4109 -0.2913
 4230TIP3    H228358   2.611   5.470   5.912 -1.6402 -1.2604 -3.2434
 4231TIP3   OH228359   1.975   4.328   1.560  0.0957  0.2458 -0.2072
 4231TIP3    H128360   1.884   4.348   1.579 -0.3234 -0.5204 -1.2917
 4231TIP3    H228361   1.987   4.238   1.591 -0.1907 -0.4878 -2.1015
 4232TIP3   OH228362   5.798   3.002   6.570  0.1723 -0.2778 -0.3150
 4232TIP3    H128363   5.785   3.019   6.663  2.6456  0.4920 -0.0449
 4232TIP3    H228364   5.746   3.069   6.526 -0.7036 -0.3936  0.5207
 4233TIP3   OH228365   1.821   3.084   0.097  0.2572  0.3849  0.3524
 4233TIP3    H128366   1.917   3.087   0.092  0.2043  0.5870 -0.5546
 4233TIP3    H228367   1.796   3.172   0.125  0.2458  0.8726 -1.1108
 4234TIP3   OH228368   1.713   2.441   5.680 -0.0060  0.3938  0.0292
 4234TIP3    H128369   1.736   2.519   5.730 -1.4448  0.6180  0.3703
 4234TIP3    H228370   1.797   2.409   5.646  0.4975  2.6077 -0.9201
 4235TIP3   OH228371   5.140   1.838   1.424 -0.6262 -0.2552 -0.6090
 4235TIP3    H128372   5.083   1.914   1.412  0.6283  1.1257  1.5031
 4235TIP3    H228373   5.229   1.872   1.414  0.0149 -1.1782  1.3553
 4236TIP3   OH228374   0.842   2.402   7.536  0.1281 -0.0607  0.1741
 4236TIP3    H128375   0.821   2.384   7.444 -0.5296  1.5166 -0.0030
 4236TIP3    H228376   0.933   2.431   7.535  0.1001  0.0209  0.0229
 4237TIP3   OH228377   0.733   0.695   0.343  0.4553 -0.1413 -0.1188
 4237TIP3    H128378   0.725   0.790   0.333 -1.4818 -0.3190 -0.6534
 4237TIP3    H228379   0.749   0.663   0.254 -0.6520 -0.4169 -0.2428
 4238TIP3   OH228380   1.889   5.118   6.855 -0.0385  0.3828 -0.1847
 4238TIP3    H128381   1.898   5.172   6.934  2.1934 -1.6605  1.0753
 4238TIP3    H228382   1.914   5.175   6.783 -0.0061  1.6646  0.8176
 4239TIP3   OH228383   2.187   3.603   0.682 -0.2274  0.3766  0.7401
 4239TIP3    H128384   2.237   3.522   0.680 -0.5664  0.1825  0.1299
 4239TIP3    H228385   2.237   3.660   0.742  1.6143  0.7538 -1.0355
 4240TIP3   OH228386   3.121   0.150   6.332  0.6663 -0.0528 -0.5415
 4240TIP3    H128387   3.109   0.239   6.365  1.1916 -0.5193  1.0369
 4240TIP3    H228388   3.191   0.157   6.267  2.2434  0.4175  1.1105
 4241TIP3   OH228389   4.753   6.052   6.039 -0.1000  0.0322 -0.1175
 4241TIP3    H128390   4.838   6.052   5.995 -0.4446  0.8731 -0.8219
 4241TIP3    H228391   4.710   5.971   6.009  1.8247 -2.4418  3.1409
 4242TIP3   OH228392   1.124   5.707   6.051  0.4364 -0.1751  0.3860
 4242TIP3    H128393   1.171   5.783   6.085 -0.6525  0.5103  0.3949
 4242TIP3    H228394   1.183   5.633   6.067  1.8709  0.7553 -0.3476
 4243TIP3   OH228395   1.593   2.609   1.280  0.4132 -0.2376  0.2161
 4243TIP3    H128396   1.630   2.607   1.369 -1.9968 -0.3611  1.3015
 4243TIP3    H228397   1.543   2.691   1.277 -0.8893 -1.0304 -0.4090
 4244TIP3   OH228398   2.237   2.966   0.801  0.3529  0.0049  0.7744
 4244TIP3    H128399   2.278   2.981   0.716 -0.3109  1.7790  0.7304
 4244TIP3    H228400   2.160   2.912   0.782  0.8268 -0.5550  0.4205
 4245TIP3   OH228401   4.031   0.240   6.852  0.2382 -0.1929  0.0608
 4245TIP3    H128402   3.951   0.232   6.801  1.4451 -0.2686 -1.9414
 4245TIP3    H228403   4.070   0.152   6.848  0.7496  0.0121  0.4304
 4246TIP3   OH228404   3.129   3.058   6.226  0.2904 -0.3356 -0.9595
 4246TIP3    H128405   3.124   2.972   6.268 -1.4447 -0.4100 -1.2397
 4246TIP3    H228406   3.221   3.067   6.201  0.7615 -1.5563  0.1838
 4247TIP3   OH228407   6.113   0.674   5.889  0.2926 -0.1288 -0.4657
 4247TIP3    H128408   6.133   0.718   5.806  2.2261  1.9181  0.9681
 4247TIP3    H228409   6.179   0.707   5.950 -1.1996 -1.3701  1.9656
 4248TIP3   OH228410   3.747   5.789   2.311 -0.0656  0.2068  0.2424
 4248TIP3    H128411   3.764   5.858   2.374  0.0148  0.9746 -0.6047
 4248TIP3    H228412   3.711   5.717   2.363  0.8519  0.4783  1.2835
 4249TIP3   OH228413   1.375   1.403   6.646 -0.3666 -0.3111 -0.3042
 4249TIP3    H128414   1.303   1.346   6.671 -0.0226 -1.0252 -0.8919
 4249TIP3    H228415   1.379   1.396   6.551  2.0067 -2.2751 -0.1841
 4250TIP3   OH228416   2.722   4.980   7.143 -0.5037  0.5778  0.1629
 4250TIP3    H128417   2.645   4.930   7.114 -1.1495  0.8211  1.3936
 4250TIP3    H228418   2.759   4.928   7.215  1.4261 -0.3267 -1.3904
 4251TIP3   OH228419   3.983   4.588   6.598  0.1133 -0.6560 -0.3136
 4251TIP3    H128420   3.894   4.567   6.626  0.6815 -1.5464  0.9464
 4251TIP3    H228421   3.972   4.636   6.516 -1.4754 -1.6893 -0.7567
 4252TIP3   OH228422   3.569   5.883   2.108 -0.0344 -0.2774  0.2058
 4252TIP3    H128423   3.547   5.800   2.066  1.8750 -1.3671  1.2140
 4252TIP3    H228424   3.628   5.859   2.180  1.3652  2.0198 -0.0586
 4253TIP3   OH228425   2.654   2.479   6.996  0.3178  0.0898 -0.0925
 4253TIP3    H128426   2.694   2.544   7.054 -0.0154 -1.0706  1.5196
 4253TIP3    H228427   2.725   2.451   6.938  0.5653  1.5458 -0.5342
 4254TIP3   OH228428   3.350   5.033   7.755  0.0162  0.2810  0.8698
 4254TIP3    H128429   3.411   5.104   7.736  1.2207 -0.9067  0.1130
 4254TIP3    H228430   3.369   5.009   7.846  1.9609 -1.2179  0.1265
 4255TIP3   OH228431   5.967   4.307   7.548  0.6314 -0.4506 -0.0171
 4255TIP3    H128432   5.932   4.355   7.473  1.5786  1.5839  0.7554
 4255TIP3    H228433   5.925   4.221   7.544 -1.6446  0.6440 -1.1355
 4256TIP3   OH228434   0.867   4.173   1.380  0.2737  0.0768 -0.0142
 4256TIP3    H128435   0.838   4.255   1.418 -0.2166  0.4780 -1.2018
 4256TIP3    H228436   0.891   4.119   1.455  2.2450  1.8815  0.7681
 4257TIP3   OH228437   1.609   5.212   1.981  0.1411 -0.6511 -0.1519
 4257TIP3    H128438   1.670   5.209   1.908  0.2530  0.0284 -0.0938
 4257TIP3    H228439   1.527   5.178   1.945  0.5014 -1.4097 -0.2751
 4258TIP3   OH228440   5.987   5.295   0.244  0.2926 -0.1581  0.3064
 4258TIP3    H128441   5.912   5.274   0.189 -0.4868  0.8896  0.9555
 4258TIP3    H228442   6.063   5.274   0.189 -0.4399 -1.5118 -0.2500
 4259TIP3   OH228443   0.029   0.982   2.800 -0.0254  0.0730 -0.0626
 4259TIP3    H128444   0.123   0.993   2.795  0.2815 -2.2381 -0.4017
 4259TIP3    H228445  -0.007   1.069   2.781  1.9877  0.7251 -1.1155
 4260TIP3   OH228446   1.813   4.228   0.305  0.1648 -0.2630 -0.0778
 4260TIP3    H128447   1.834   4.203   0.394  0.2798  0.2475  0.0416
 4260TIP3    H228448   1.731   4.182   0.285 -0.3867  0.3850  0.6393
 4261TIP3   OH228449   4.925   5.407   7.015 -0.9906  0.2367 -0.5620
 4261TIP3    H128450   5.001   5.430   7.069 -1.4576  0.9640 -0.1988
 4261TIP3    H228451   4.854   5.395   7.077 -1.7604  2.0065 -1.0446
 4262TIP3   OH228452   3.278   2.336   2.506 -0.5553 -0.4795  0.2808
 4262TIP3    H128453   3.358   2.373   2.544  0.2869 -2.5563  0.6416
 4262TIP3    H228454   3.207   2.389   2.542  0.5335  0.2993  1.3348
 4263TIP3   OH228455   4.661   2.015   0.043  0.1295 -0.0840  0.2282
 4263TIP3    H128456   4.668   2.022   0.139 -1.7732  0.6347  0.3614
 4263TIP3    H228457   4.714   2.087   0.010  2.0511 -1.2314  0.6351
 4264TIP3   OH228458   3.472   3.120   7.458  0.2238  0.0079 -0.0417
 4264TIP3    H128459   3.443   3.042   7.506  1.1538 -0.7485 -0.6673
 4264TIP3    H228460   3.544   3.155   7.511  2.0472 -1.4917 -1.3438
 4265TIP3   OH228461   0.701   2.457   0.025 -0.2719  0.0563  0.1512
 4265TIP3    H128462   0.619   2.409   0.034  0.3722 -0.9623  0.7056
 4265TIP3    H228463   0.736   2.430  -0.060  0.1046 -0.4800  0.4755
 4266TIP3   OH228464   4.134   3.663   1.450  0.0666 -0.8303  0.8281
 4266TIP3    H128465   4.220   3.698   1.425 -0.3009  1.2854  2.2610
 4266TIP3    H228466   4.091   3.642   1.367  0.7573  1.1738 -0.0897
 4267TIP3   OH228467   5.942   0.732   6.585  0.3834  0.2403  0.6908
 4267TIP3    H128468   5.986   0.717   6.669  1.8578 -0.1878 -0.1115
 4267TIP3    H228469   6.011   0.765   6.528 -0.5995  0.5299 -0.3587
 4268TIP3   OH228470   5.672   4.974   7.072  0.2188 -0.0994 -0.4449
 4268TIP3    H128471   5.616   4.937   7.140 -2.5395  2.0529 -1.3718
 4268TIP3    H228472   5.675   4.907   7.004  0.6489 -1.1183  0.5484
 4269TIP3   OH228473   6.168   1.737   1.243 -0.1428  0.1540  0.3141
 4269TIP3    H128474   6.233   1.736   1.172  0.8272 -2.9999  1.0724
 4269TIP3    H228475   6.085   1.756   1.199  1.0327  3.4004 -0.8197
 4270TIP3   OH228476   1.510   3.768   5.806  0.0832 -0.0145 -0.6046
 4270TIP3    H128477   1.504   3.822   5.727  0.3930 -1.7815 -1.8876
 4270TIP3    H228478   1.590   3.797   5.849  1.8354 -1.3146 -2.7894
 4271TIP3   OH228479   3.924   3.733   5.781  0.1571  0.4957  0.4282
 4271TIP3    H128480   3.959   3.648   5.807 -0.5231  0.5619  1.6662
 4271TIP3    H228481   3.990   3.796   5.809 -0.4620  0.5460  1.8662
 4272TIP3   OH228482   0.275   3.653   5.788 -0.7372  1.1237 -0.0563
 4272TIP3    H128483   0.205   3.719   5.789 -0.9349  0.9381 -0.9544
 4272TIP3    H228484   0.232   3.573   5.760 -0.2272  0.9236 -0.2660
 4273TIP3   OH228485   4.572   2.624   6.660  0.3239  0.2010 -0.1167
 4273TIP3    H128486   4.644   2.561   6.668  0.8662  0.9562  1.2805
 4273TIP3    H228487   4.561   2.659   6.748 -1.5672  0.3429 -0.3631
 4274TIP3   OH228488   5.321   1.227   0.985  0.1764  0.5227 -0.1564
 4274TIP3    H128489   5.368   1.144   0.999  0.3288  0.3102 -1.7881
 4274TIP3    H228490   5.381   1.294   1.019  1.8195  0.2765 -2.3180
 4275TIP3   OH228491   5.659   3.974   0.564 -0.0881  0.0851  0.0294
 4275TIP3    H128492   5.615   3.925   0.633 -0.8264  0.0748 -0.4389
 4275TIP3    H228493   5.752   3.968   0.586 -0.0710 -2.2297 -0.4549
 4276TIP3   OH228494   2.306   2.385   7.418 -0.0501 -0.0667  0.2334
 4276TIP3    H128495   2.358   2.462   7.396 -1.7653  1.3121  0.8619
 4276TIP3    H228496   2.348   2.348   7.495  1.9266 -0.9442 -1.1801
 4277TIP3   OH228497   0.823   4.979   2.328  0.6717 -0.0703 -0.1013
 4277TIP3    H128498   0.820   4.892   2.368 -1.1809 -0.6621 -1.3979
 4277TIP3    H228499   0.912   4.986   2.293  0.9402 -1.3185  0.2699
 4278TIP3   OH228500   5.989   5.173   2.629 -0.5970  0.2280 -0.0382
 4278TIP3    H128501   6.044   5.234   2.678  0.4004 -0.5062 -0.1984
 4278TIP3    H228502   5.931   5.228   2.577  0.7995  1.0690 -0.7622
 4279TIP3   OH228503   4.253   4.020   7.558  0.2527  0.1255  0.1523
 4279TIP3    H128504   4.174   3.966   7.561 -1.0773  1.9931  1.7111
 4279TIP3    H228505   4.300   3.999   7.638 -0.9736  2.1110  1.4932
 4280TIP3   OH228506   0.103   5.630   1.037 -0.0415  0.0379 -0.0238
 4280TIP3    H128507   0.053   5.665   0.964 -3.3686 -0.4377  1.8195
 4280TIP3    H228508   0.044   5.565   1.077  2.0617 -0.5286  2.4138
 4281TIP3   OH228509   1.300   2.991   0.295 -0.2183 -0.2731 -0.4367
 4281TIP3    H128510   1.381   3.037   0.273  0.8909 -1.3436  1.1736
 4281TIP3    H228511   1.242   3.059   0.329  0.1405  0.4407 -1.2293
 4282TIP3   OH228512   0.184   0.870   7.223  0.0666  0.6235  0.0418
 4282TIP3    H128513   0.260   0.866   7.282 -0.7260  2.5237  1.2633
 4282TIP3    H228514   0.196   0.950   7.173 -0.5219  0.2824 -0.6705
 4283TIP3   OH228515   5.511   1.789   1.430 -0.2858  0.3767  0.2067
 4283TIP3    H128516   5.491   1.810   1.521  0.8041 -0.1848  0.6020
 4283TIP3    H228517   5.593   1.835   1.412  1.4826 -2.3435  0.7081
 4284TIP3   OH228518   5.093   2.876   0.767  0.4082 -0.1268 -0.2516
 4284TIP3    H128519   5.013   2.825   0.781  0.1050  0.7361  1.4245
 4284TIP3    H228520   5.076   2.960   0.809  1.8393  0.4412 -0.7319
 4285TIP3   OH228521   1.547   2.732   1.987 -0.1490  1.0041  0.3940
 4285TIP3    H128522   1.612   2.801   1.973 -0.3146  1.7023  2.7589
 4285TIP3    H228523   1.546   2.718   2.081 -1.8943 -0.5193  0.2047
 4286TIP3   OH228524   2.306   5.666   7.120  0.3172 -0.3011 -0.0524
 4286TIP3    H128525   2.346   5.582   7.096 -0.4180 -0.5613 -0.3765
 4286TIP3    H228526   2.296   5.662   7.215  0.6539 -0.4108 -0.0184
 4287TIP3   OH228527   1.464   4.367   7.695  0.6354 -0.0393  0.2028
 4287TIP3    H128528   1.419   4.324   7.622 -2.3539 -0.2007  1.9857
 4287TIP3    H228529   1.498   4.449   7.658  0.8593 -0.9630 -1.7441
 4288TIP3   OH228530   5.525   2.813   2.696 -0.2957  0.3791  0.3845
 4288TIP3    H128531   5.434   2.795   2.671 -0.1032 -1.7521  1.0815
 4288TIP3    H228532   5.520   2.896   2.744 -2.2018 -0.5857  2.0032
 4289TIP3   OH228533   5.530   1.746   6.471  0.3639  0.1218 -0.4544
 4289TIP3    H128534   5.478   1.711   6.543 -1.1464  3.2329  0.1172
 4289TIP3    H228535   5.470   1.751   6.397  1.6981 -2.3168 -1.8252
 4290TIP3   OH228536   1.059   3.722   1.068 -0.2608  0.2390 -0.3176
 4290TIP3    H128537   1.050   3.683   1.155 -1.1758  0.0052 -0.5030
 4290TIP3    H228538   1.052   3.816   1.083 -1.4650  0.1553 -0.2330
 4291TIP3   OH228539   3.907   5.233   6.889  0.0445  0.2515 -0.5074
 4291TIP3    H128540   3.953   5.193   6.814 -0.0422 -1.3911  0.2710
 4291TIP3    H228541   3.973   5.238   6.957 -0.5861 -0.9924  0.2287
 4292TIP3   OH228542   5.176   4.084   6.622  0.0957 -0.1257  0.2564
 4292TIP3    H128543   5.164   4.007   6.678  3.0454  1.1881  3.0101
 4292TIP3    H228544   5.235   4.054   6.553 -0.9365 -0.9311 -0.3138
 4293TIP3   OH228545   2.282   3.693   1.748  0.1166 -0.2960  0.4269
 4293TIP3    H128546   2.297   3.740   1.830  1.1904  0.1244  0.0065
 4293TIP3    H228547   2.291   3.600   1.771 -1.1504 -0.2730  1.0864
 4294TIP3   OH228548   0.953   2.343   6.854  0.0419  0.3509  0.0719
 4294TIP3    H128549   0.956   2.251   6.830 -1.6360 -0.5259  2.8325
 4294TIP3    H228550   0.941   2.389   6.771 -1.2832 -2.0686 -1.1779
 4295TIP3   OH228551   4.316   2.241   1.310  0.1757 -0.3644  0.3049
 4295TIP3    H128552   4.267   2.320   1.330  0.6091 -0.0360  0.0819
 4295TIP3    H228553   4.287   2.178   1.376 -0.5945 -0.2055  0.1311
 4296TIP3   OH228554   4.244   2.260   7.386  1.4150 -0.2167 -0.5840
 4296TIP3    H128555   4.224   2.181   7.436 -0.8801  0.5498 -0.1734
 4296TIP3    H228556   4.246   2.231   7.295 -2.3851 -0.4023 -0.7815
 4297TIP3   OH228557   5.521   3.152   6.949 -0.6451 -0.6377  0.3043
 4297TIP3    H128558   5.583   3.132   6.879  0.3951  1.8737  0.4200
 4297TIP3    H228559   5.437   3.163   6.904  0.2853  2.4890 -0.9134
 4298TIP3   OH228560   1.398   5.662   6.715 -0.0306 -0.1576  0.3234
 4298TIP3    H128561   1.476   5.718   6.714  0.4851 -0.8548 -0.8906
 4298TIP3    H228562   1.421   5.590   6.773  0.5206 -0.7295 -0.5816
 4299TIP3   OH228563   4.442   5.747   7.582 -0.1724 -0.2010 -0.3662
 4299TIP3    H128564   4.408   5.726   7.669 -1.0489  1.2471 -0.3304
 4299TIP3    H228565   4.368   5.731   7.523  0.5705 -1.7005 -0.9637
 4300TIP3   OH228566   4.507   2.260   2.245 -0.1683  0.4962 -0.1934
 4300TIP3    H128567   4.425   2.270   2.293  0.9594  0.4577  1.8857
 4300TIP3    H228568   4.521   2.345   2.203 -1.6517  0.2278 -1.3131
 4301TIP3   OH228569   1.282   0.878   2.222  0.3470  0.7079  0.2961
 4301TIP3    H128570   1.199   0.903   2.182  0.3929 -1.6336 -1.4872
 4301TIP3    H228571   1.276   0.909   2.312 -2.7932 -0.0778  0.4354
 4302TIP3   OH228572   0.883   2.819   5.951 -0.5262  0.0101 -0.2344
 4302TIP3    H128573   0.833   2.740   5.971 -0.2834 -0.3110 -0.8544
 4302TIP3    H228574   0.829   2.866   5.888 -0.9406  0.6419  0.5692
 4303TIP3   OH228575   2.704   3.798   6.687 -0.1130 -0.7207 -0.1966
 4303TIP3    H128576   2.704   3.792   6.591  2.2380  0.4402 -0.3517
 4303TIP3    H228577   2.723   3.709   6.717 -1.0162 -1.1238 -0.7806
 4304TIP3   OH228578   0.550   2.277   6.797  0.0591 -0.2592 -0.1544
 4304TIP3    H128579   0.574   2.325   6.718 -1.3130  1.9996  0.6977
 4304TIP3    H228580   0.455   2.271   6.793 -0.3229  1.9864  2.3269
 4305TIP3   OH228581   4.581   2.994   2.175  0.2375 -0.2960  0.0460
 4305TIP3    H128582   4.626   2.940   2.111 -0.2187 -0.6968  0.0560
 4305TIP3    H228583   4.531   2.932   2.228  0.6477  0.0157  0.8308
 4306TIP3   OH228584   0.248   6.029   0.982  0.1177 -0.3819 -0.3757
 4306TIP3    H128585   0.214   6.056   1.067  1.3839 -1.0251  0.3552
 4306TIP3    H228586   0.314   6.095   0.960  0.1218 -0.4726 -0.6444
 4307TIP3   OH228587   1.168   1.232   0.513 -0.2201  0.2479 -0.1246
 4307TIP3    H128588   1.256   1.204   0.489 -0.3889 -0.4591  0.0519
 4307TIP3    H228589   1.165   1.325   0.490  1.0197  0.6293  1.1381
 4308TIP3   OH228590   0.891   4.036   1.631  0.2858 -0.4239 -0.1823
 4308TIP3    H128591   0.821   3.977   1.658 -0.0426 -0.6008 -1.3705
 4308TIP3    H228592   0.969   3.981   1.627  0.6472 -0.1148  1.6736
 4309TIP3   OH228593   5.278   0.915   0.616 -0.2863  0.4946 -0.3820
 4309TIP3    H128594   5.358   0.958   0.646  0.9058 -0.1121 -2.4440
 4309TIP3    H228595   5.231   0.983   0.568 -1.0052  0.8373  0.7861
 4310TIP3   OH228596   4.505   2.971   7.558 -0.2583 -0.4006 -0.1388
 4310TIP3    H128597   4.483   2.917   7.482  0.1743 -0.6231 -0.1123
 4310TIP3    H228598   4.422   3.010   7.585 -0.3868 -0.1650 -0.8455
 4311TIP3   OH228599   1.734   5.308   6.525  0.4554 -0.3728 -0.0682
 4311TIP3    H128600   1.800   5.354   6.472  1.3751 -0.1955  1.1843
 4311TIP3    H228601   1.652   5.351   6.504  0.9795  0.4495 -0.4883
 4312TIP3   OH228602   0.549   5.156   0.446  0.7275  0.5410  0.4670
 4312TIP3    H128603   0.530   5.077   0.497 -0.0562  1.0424  0.9671
 4312TIP3    H228604   0.553   5.126   0.355 -1.4967  0.2066  0.4204
 4313TIP3   OH228605   5.676   5.211   0.914 -0.3630  0.3267  0.9225
 4313TIP3    H128606   5.658   5.255   0.997 -0.7941  0.1297  0.9377
 4313TIP3    H228607   5.771   5.201   0.911 -0.3191  0.6522  1.2276
 4314TIP3   OH228608   5.360   5.408   7.570  0.4987  0.3713  0.1112
 4314TIP3    H128609   5.281   5.442   7.612 -0.2842 -1.7764  0.5217
 4314TIP3    H228610   5.431   5.430   7.630 -0.4651 -1.7351  2.1393
 4315TIP3   OH228611   2.109   5.386   1.765 -0.3883  0.2271  0.3429
 4315TIP3    H128612   2.190   5.422   1.729 -0.5842  0.1322 -0.2172
 4315TIP3    H228613   2.073   5.333   1.693 -1.6032  1.3219  0.1006
 4316TIP3   OH228614   0.217   2.344   0.350  0.5100  0.5523  0.2794
 4316TIP3    H128615   0.250   2.286   0.419  1.3924  0.6500 -0.0443
 4316TIP3    H228616   0.143   2.297   0.313  0.5375  0.1267  0.7479
 4317TIP3   OH228617   3.638   4.245   6.848  0.1357  0.1230  0.2319
 4317TIP3    H128618   3.573   4.297   6.894  0.0552  0.7877 -0.5960
 4317TIP3    H228619   3.590   4.167   6.818  0.0342  0.0024  0.7114
 4318TIP3   OH228620   4.745   0.875   2.156  0.0737  0.2526 -0.2377
 4318TIP3    H128621   4.754   0.917   2.241 -0.1523  0.9972 -0.5664
 4318TIP3    H228622   4.667   0.820   2.164 -0.3276  0.8202 -0.1473
 4319TIP3   OH228623   2.860   2.766   0.045  0.3837  0.1507  0.0800
 4319TIP3    H128624   2.800   2.812  -0.015  0.8450 -0.1037 -0.5894
 4319TIP3    H228625   2.906   2.704  -0.011  0.8762 -0.0474  0.6979
 4320TIP3   OH228626   6.119   3.933   1.629  0.0585 -0.0388  0.0187
 4320TIP3    H128627   6.087   3.933   1.539 -0.3934 -0.1144  0.1763
 4320TIP3    H228628   6.181   4.006   1.632  2.2701 -1.7521 -1.0978
 4321TIP3   OH228629   6.300   1.732   6.757  0.0147  0.0293 -0.0152
 4321TIP3    H128630   6.245   1.795   6.804 -0.8314 -0.1264 -0.7598
 4321TIP3    H228631   6.384   1.776   6.745 -0.1616  0.5301  0.5710
 4322TIP3   OH228632   1.041   3.600   6.787  0.5195  0.7150  0.4194
 4322TIP3    H128633   1.022   3.680   6.739 -1.4288  0.1237  0.1370
 4322TIP3    H228634   1.006   3.616   6.875  1.6598  0.7767  0.8892
 4323TIP3   OH228635   3.135   5.820   7.666  0.1693 -0.1890 -0.1220
 4323TIP3    H128636   3.087   5.750   7.711  0.3001 -1.4153 -1.7933
 4323TIP3    H228637   3.172   5.777   7.588 -0.9217  2.0356 -1.9748
 4324TIP3   OH228638   3.274   3.427   1.141 -0.2084  0.4307 -0.1560
 4324TIP3    H128639   3.263   3.517   1.109  3.1661  0.2750 -2.2345
 4324TIP3    H228640   3.345   3.433   1.205  0.3597 -0.7689 -0.6468
 4325TIP3   OH228641   4.636   3.563   1.176  0.1338 -0.7660 -0.2493
 4325TIP3    H128642   4.697   3.492   1.195  0.5516 -0.6383 -1.0754
 4325TIP3    H228643   4.689   3.642   1.185 -0.5694 -0.4580  1.6794
 4326TIP3   OH228644   3.068   5.806   6.601  0.1542  0.5077  0.1408
 4326TIP3    H128645   3.031   5.809   6.689  2.6725 -0.1376  1.3295
 4326TIP3    H228646   3.088   5.713   6.586 -0.7282  0.5235 -1.3649
 4327TIP3   OH228647   3.025   2.519   7.052  0.2040 -0.0207 -0.2126
 4327TIP3    H128648   3.035   2.455   7.123  0.6667 -0.2421 -0.4716
 4327TIP3    H228649   2.993   2.467   6.978  0.2355  0.1132 -0.3198
 4328TIP3   OH228650   1.598   3.108   7.247 -0.2947 -0.0299  0.5029
 4328TIP3    H128651   1.658   3.183   7.246  0.8809 -0.9140  1.6485
 4328TIP3    H228652   1.582   3.089   7.155  0.7052  0.6187  0.1797
 4329TIP3   OH228653   0.639   2.676   7.342  0.2739  0.6254 -0.5031
 4329TIP3    H128654   0.664   2.732   7.269  0.2768  0.2435 -0.8037
 4329TIP3    H228655   0.660   2.587   7.312 -0.2311  0.4158 -0.2539
 4330TIP3   OH228656   1.607   2.516   1.549 -0.6375  0.0240  0.1219
 4330TIP3    H128657   1.637   2.530   1.639  0.1861  0.3309 -0.1834
 4330TIP3    H228658   1.517   2.546   1.548 -0.1266  1.6797  0.4381
 4331TIP3   OH228659   5.760   5.581   5.808  0.0451  0.4774 -0.1095
 4331TIP3    H128660   5.722   5.668   5.801 -1.6847 -0.2336  0.0755
 4331TIP3    H228661   5.776   5.554   5.718 -0.3109  0.6047 -0.2093
 4332TIP3   OH228662   2.684   6.203   2.039 -0.9651  0.3147  0.5134
 4332TIP3    H128663   2.747   6.160   2.096 -0.6444 -1.8389 -1.2992
 4332TIP3    H228664   2.737   6.255   1.979 -0.6752 -2.0003 -1.4283
 4333TIP3   OH228665   5.679   1.143   7.523 -0.3945 -0.5335  0.5734
 4333TIP3    H128666   5.755   1.201   7.520 -0.7284 -0.1105 -0.2474
 4333TIP3    H228667   5.680   1.105   7.611  1.0193 -0.8874  0.4306
 4334TIP3   OH228668   0.715   1.012   1.301  0.1350  0.6092  0.4188
 4334TIP3    H128669   0.666   0.964   1.368 -1.1596 -1.5012 -1.8194
 4334TIP3    H228670   0.778   0.948   1.267 -0.7416  0.8073 -1.7797
 4335TIP3   OH228671   5.074   3.185   6.579  0.1466 -0.5022 -0.0542
 4335TIP3    H128672   5.038   3.099   6.601  0.7359 -0.8475 -0.4190
 4335TIP3    H228673   5.006   3.247   6.607  0.1204 -1.0180  1.0987
 4336TIP3   OH228674   3.053   4.024   0.796 -0.2618 -0.0369  0.2081
 4336TIP3    H128675   3.029   3.932   0.787 -0.0445  0.1152 -3.1585
 4336TIP3    H228676   3.112   4.026   0.871  1.6700 -3.0788 -1.0346
 4337TIP3   OH228677   1.960   1.409   1.528  0.1473 -0.2799 -0.3130
 4337TIP3    H128678   1.975   1.314   1.519 -1.7664 -0.6163 -0.4282
 4337TIP3    H228679   1.949   1.440   1.438  0.6667  0.0374 -0.2686
 4338TIP3   OH228680   3.676   4.738   2.327 -0.4535  0.7108  0.2063
 4338TIP3    H128681   3.754   4.685   2.339 -1.3996 -1.0491 -0.9832
 4338TIP3    H228682   3.699   4.824   2.362  1.5698 -0.1147  1.0078
 4339TIP3   OH228683   3.805   4.671   1.412 -0.3554 -0.2665  0.3212
 4339TIP3    H128684   3.793   4.586   1.455  0.5204  0.2139  1.5656
 4339TIP3    H228685   3.725   4.719   1.430 -0.8119 -0.7712 -0.2973
 4340TIP3   OH228686   1.970   2.303   2.862  0.5682  0.2961  0.1598
 4340TIP3    H128687   2.018   2.297   2.944  2.3798  1.2864 -0.7601
 4340TIP3    H228688   2.031   2.270   2.796  0.1176  1.7924 -1.0750
 4341TIP3   OH228689   3.330   1.481   1.788 -0.9460  0.3658  0.0213
 4341TIP3    H128690   3.382   1.403   1.768 -1.4852 -0.1403  0.5490
 4341TIP3    H228691   3.355   1.503   1.878 -1.5321  0.2003  0.2306
 4342TIP3   OH228692   4.797   2.902   0.773 -0.3486  0.3342  0.7265
 4342TIP3    H128693   4.785   2.862   0.686 -3.0961 -0.7237  1.4811
 4342TIP3    H228694   4.772   2.993   0.760 -0.6448  0.2051  0.3529
 4343TIP3   OH228695   4.092   3.817   1.074 -0.5575  0.3425 -0.0433
 4343TIP3    H128696   4.142   3.880   1.125  2.1751 -0.1966 -1.8299
 4343TIP3    H228697   4.021   3.868   1.036  0.7704  2.0784 -0.3386
 4344TIP3   OH228698   0.988   0.054   2.843  0.1876  0.3428 -0.4466
 4344TIP3    H128699   0.949   0.028   2.759 -1.4269 -1.1489  0.6718
 4344TIP3    H228700   0.972  -0.021   2.900 -0.1844  1.9144  1.6329
 4345TIP3   OH228701   4.042   2.487   7.088  0.2293  0.0302  0.0863
 4345TIP3    H128702   4.131   2.510   7.061 -0.1181  0.2505 -0.9196
 4345TIP3    H228703   4.018   2.553   7.152  0.6913  0.1229  0.1680
 4346TIP3   OH228704   0.212   2.073   1.861  0.3950 -0.1008 -0.0513
 4346TIP3    H128705   0.173   2.012   1.923  0.3871 -0.6006 -0.5331
 4346TIP3    H228706   0.156   2.066   1.783 -0.4529  1.5708  0.3586
 4347TIP3   OH228707   0.691   5.176   7.662 -0.0086 -0.2419  0.1549
 4347TIP3    H128708   0.762   5.113   7.648 -0.6144 -0.9735  0.2688
 4347TIP3    H228709   0.726   5.259   7.630  0.8836 -0.5902  0.1812
 4348TIP3   OH228710   3.692   3.167   6.635  0.1518 -0.2770 -0.4511
 4348TIP3    H128711   3.702   3.202   6.724 -0.1779 -2.0378  0.3157
 4348TIP3    H228712   3.782   3.153   6.605  0.2602 -0.0392 -0.2405
 4349TIP3   OH228713   2.509   4.626   2.364  0.1592 -0.0893 -0.0479
 4349TIP3    H128714   2.498   4.677   2.283 -1.1641 -0.8385 -0.3700
 4349TIP3    H228715   2.539   4.690   2.428  0.9094  0.5883 -1.0410
 4350TIP3   OH228716   1.970   4.082   0.636 -0.0244  0.2661 -0.4384
 4350TIP3    H128717   2.006   4.073   0.725 -0.0142 -0.7310 -0.5274
 4350TIP3    H228718   2.024   4.149   0.595 -1.2525  2.1696  0.9093
 4351TIP3   OH228719   2.559   3.663   0.377  0.0755  0.4205  0.1830
 4351TIP3    H128720   2.562   3.734   0.442  0.5329  0.3328  0.2626
 4351TIP3    H228721   2.481   3.613   0.400  1.6840 -1.2539  2.4423
 4352TIP3   OH228722   6.086   3.897   7.307  0.6014  0.2860  0.3821
 4352TIP3    H128723   6.094   3.853   7.392 -0.6907  1.2622  1.0566
 4352TIP3    H228724   6.157   3.960   7.306 -0.4105  1.5390  1.5989
 4353TIP3   OH228725   4.896   0.861   0.538  0.6555 -0.4967  0.0102
 4353TIP3    H128726   4.824   0.800   0.528 -2.6042  2.7985  1.2142
 4353TIP3    H228727   4.946   0.854   0.457 -0.6832 -3.2381 -0.6695
 4354TIP3   OH228728   5.473   3.909   1.038  0.4264  0.0021 -0.1983
 4354TIP3    H128729   5.473   3.814   1.050  0.1404 -0.3739 -2.6358
 4354TIP3    H228730   5.383   3.936   1.056  0.5194 -0.1525  0.5427
 4355TIP3   OH228731   4.339   2.799   0.138 -0.4841  0.3652  0.6508
 4355TIP3    H128732   4.351   2.845   0.055  0.1199 -2.7127 -1.1309
 4355TIP3    H228733   4.284   2.724   0.115 -0.1968 -0.6509  3.0335
 4356TIP3   OH228734   2.812   0.755   0.541  0.0080 -0.5761 -0.3736
 4356TIP3    H128735   2.790   0.689   0.475  0.5723  0.1430 -1.3035
 4356TIP3    H228736   2.779   0.837   0.505 -0.8692 -0.3500  0.8614
 4357TIP3   OH228737   1.262   0.652   2.003  0.4094  0.2530 -0.1916
 4357TIP3    H128738   1.181   0.681   1.959  0.5948  0.7122 -0.2369
 4357TIP3    H228739   1.280   0.720   2.068 -0.5875 -1.0759  1.5537
 4358TIP3   OH228740   5.175   4.804   0.188  0.0148 -0.0244  0.1978
 4358TIP3    H128741   5.129   4.767   0.113  1.7642 -0.1622 -0.8674
 4358TIP3    H228742   5.151   4.896   0.188  0.2465  0.0517 -0.7649
 4359TIP3   OH228743   1.836   4.807   1.092 -0.6817 -0.3795 -0.1043
 4359TIP3    H128744   1.807   4.835   1.178 -1.3457  1.3836 -0.8666
 4359TIP3    H228745   1.930   4.826   1.090 -1.0547  1.6410 -0.4913
 4360TIP3   OH228746   2.681   1.546   6.711  0.0884  0.1368 -0.5663
 4360TIP3    H128747   2.637   1.603   6.648  0.7716 -0.6758 -1.8270
 4360TIP3    H228748   2.714   1.606   6.778  1.4022  1.3684 -2.2031
 4361TIP3   OH228749   3.708   0.790   0.438  0.7784  0.2527  0.0323
 4361TIP3    H128750   3.642   0.859   0.444 -0.3349 -0.8411  0.7846
 4361TIP3    H228751   3.663   0.711   0.466  1.4115 -1.2276 -2.7528
 4362TIP3   OH228752   0.208   2.062   0.031  0.0038  0.4549  0.3174
 4362TIP3    H128753   0.287   2.116   0.032  1.4504 -1.5498  0.8855
 4362TIP3    H228754   0.218   2.005   0.107 -0.5327 -1.8156 -1.2243
 4363TIP3   OH228755   1.869   2.253   6.646 -0.2604  0.4748 -0.5653
 4363TIP3    H128756   1.909   2.250   6.733 -1.8641  1.3752  0.2619
 4363TIP3    H228757   1.886   2.341   6.615 -1.5343  0.8830 -0.1864
 4364TIP3   OH228758   6.293   2.633   2.153  0.2691  0.7276 -0.1606
 4364TIP3    H128759   6.368   2.574   2.160 -0.2891 -0.0644 -0.7616
 4364TIP3    H228760   6.326   2.706   2.100  0.8458  0.7806  0.2585
 4365TIP3   OH228761   0.218   1.080   6.127  0.4394  0.6221 -0.3223
 4365TIP3    H128762   0.134   1.034   6.134  0.8060 -0.1741 -1.0096
 4365TIP3    H228763   0.284   1.010   6.123  0.9418  1.1292 -2.2603
 4366TIP3   OH228764   1.926   1.866   6.242 -0.7682  0.2993 -0.4189
 4366TIP3    H128765   2.004   1.889   6.292 -0.1286  0.7599 -1.5758
 4366TIP3    H228766   1.900   1.948   6.199 -0.6547 -0.2809 -1.6604
 4367TIP3   OH228767   2.111   5.399   1.327  0.0839  0.0352  0.1579
 4367TIP3    H128768   2.054   5.476   1.318  0.0883  0.2763  1.8856
 4367TIP3    H228769   2.088   5.343   1.253 -0.5299  1.3108 -0.6508
 4368TIP3   OH228770   4.090   1.412   0.271  0.4011  0.4256  0.4757
 4368TIP3    H128771   4.079   1.318   0.286 -1.1368  0.5617  0.3193
 4368TIP3    H228772   4.038   1.454   0.338 -0.1711  1.1409 -0.3915
 4369TIP3   OH228773   5.741   5.042   6.698 -0.3004 -0.4433 -0.7646
 4369TIP3    H128774   5.836   5.037   6.711 -0.3456 -0.5534 -0.4733
 4369TIP3    H228775   5.719   5.133   6.717 -0.4265 -0.6929  0.3773
 4370TIP3   OH228776   3.572   4.864   1.935 -0.0725  0.2159 -0.0919
 4370TIP3    H128777   3.665   4.885   1.941 -0.2037  0.8315 -0.1652
 4370TIP3    H228778   3.556   4.803   2.007  0.0602  1.3359  0.9084
 4371TIP3   OH228779   1.850   2.634   6.191 -0.0259 -0.2220  0.0297
 4371TIP3    H128780   1.777   2.652   6.250  1.6898 -0.6458  2.4368
 4371TIP3    H228781   1.850   2.539   6.180  0.7154 -0.3278  0.8469
 4372TIP3   OH228782   0.406   4.609   2.216 -0.3629 -0.7564  0.0167
 4372TIP3    H128783   0.366   4.528   2.246  1.6466 -2.6275 -1.9873
 4372TIP3    H228784   0.483   4.621   2.272 -0.2248 -0.6795 -0.1857
 4373TIP3   OH228785   5.520   0.902   2.707 -0.2733  0.1592 -0.0829
 4373TIP3    H128786   5.615   0.901   2.714 -0.3078 -0.5156  0.3433
 4373TIP3    H228787   5.503   0.877   2.616 -0.0736 -1.4540  0.3016
 4374TIP3   OH228788   5.820   2.389   1.143  0.0592  0.2769  0.1299
 4374TIP3    H128789   5.826   2.312   1.201  0.4937 -0.3315 -0.7026
 4374TIP3    H228790   5.822   2.353   1.055 -2.9219  0.9945 -0.3454
 4375TIP3   OH228791   2.781   4.545   2.480  0.0027 -0.0679 -0.5129
 4375TIP3    H128792   2.840   4.601   2.531  0.1470 -1.4804  0.9551
 4375TIP3    H228793   2.697   4.549   2.526 -0.6432  0.7059 -1.7052
 4376TIP3   OH228794   1.388   5.853   6.460 -0.4279 -0.2414  0.1454
 4376TIP3    H128795   1.428   5.771   6.431 -1.3047 -0.7584  0.3781
 4376TIP3    H228796   1.412   5.861   6.552  0.9527  0.5598 -0.2526
 4377TIP3   OH228797   3.628   0.289   2.078  0.6240 -0.6491  0.2801
 4377TIP3    H128798   3.644   0.380   2.102  0.5512  0.4383 -3.2854
 4377TIP3    H228799   3.563   0.258   2.141  0.0254  2.0268  1.0880
 4378TIP3   OH228800   5.784   5.763   0.329 -0.3229 -0.0385 -0.0520
 4378TIP3    H128801   5.766   5.821   0.403  0.4713  0.7685 -0.4630
 4378TIP3    H228802   5.877   5.742   0.338 -0.3509 -0.3810 -0.5175
 4379TIP3   OH228803   2.773   4.105   2.421 -0.0143  0.3956 -0.1145
 4379TIP3    H128804   2.849   4.098   2.480  0.4540  2.5803 -0.3838
 4379TIP3    H228805   2.701   4.130   2.478 -1.0132 -3.0470  0.3904
 4380TIP3   OH228806   3.255   1.127   0.971 -0.5607  0.2699 -0.2593
 4380TIP3    H128807   3.207   1.107   1.052  1.5405  0.0403  0.9953
 4380TIP3    H228808   3.267   1.222   0.973 -0.1437  0.2167 -0.0629
 4381TIP3   OH228809   4.333   0.785   0.724  0.2838 -0.2396 -0.2903
 4381TIP3    H128810   4.246   0.767   0.761  0.6522  0.6911  1.1283
 4381TIP3    H228811   4.322   0.772   0.630 -1.1911 -0.8932 -0.0644
 4382TIP3   OH228812   3.690   5.969   0.775 -0.0015 -0.1644 -0.5257
 4382TIP3    H128813   3.610   6.021   0.774  0.0129 -0.1298 -0.0229
 4382TIP3    H228814   3.660   5.880   0.755 -0.4238 -0.4867  1.3523
 4383TIP3   OH228815   3.782   1.565   7.567  0.3194 -0.6107 -0.0679
 4383TIP3    H128816   3.802   1.472   7.577 -1.9042 -0.9088  3.2347
 4383TIP3    H228817   3.852   1.610   7.616  1.1591 -0.5265 -1.3095
 4384TIP3   OH228818   4.157   2.232   5.846 -0.2897 -0.2590 -0.0319
 4384TIP3    H128819   4.141   2.269   5.932 -2.3046  0.0941 -0.5147
 4384TIP3    H228820   4.198   2.147   5.864  1.6525  0.8648  1.1533
 4385TIP3   OH228821   1.941   1.002   2.104 -0.4837 -0.6410  0.3392
 4385TIP3    H128822   1.973   1.090   2.125  0.8098 -0.8696 -0.5793
 4385TIP3    H228823   1.899   0.972   2.184  1.5885 -0.2988  1.6344
 4386TIP3   OH228824   4.968   3.251   7.256  0.2838  0.1059  0.1203
 4386TIP3    H128825   5.032   3.269   7.325  1.4689 -0.4135 -0.8209
 4386TIP3    H228826   4.884   3.256   7.301  0.9929  0.2592  1.5037
 4387TIP3   OH228827   2.586   0.861   6.971  0.0619 -0.3605 -0.0610
 4387TIP3    H128828   2.606   0.767   6.979  0.3529 -0.3014 -0.0883
 4387TIP3    H228829   2.621   0.885   6.886  0.7276 -0.0407  0.2965
 4388TIP3   OH228830   2.974   3.805   0.959  0.0370  0.2559 -0.7176
 4388TIP3    H128831   3.006   3.872   1.019 -0.8516 -0.0880  0.1696
 4388TIP3    H228832   2.880   3.824   0.950  0.1520  0.2764 -1.9782
 4389TIP3   OH228833   5.242   4.438   0.063  0.2029  0.3182  0.1657
 4389TIP3    H128834   5.226   4.355   0.106 -0.9392 -0.2193 -1.2126
 4389TIP3    H228835   5.187   4.501   0.110 -0.2706 -0.0545  0.1058
 4390TIP3   OH228836   3.798   1.530   7.096  0.5035 -0.4380  0.9019
 4390TIP3    H128837   3.852   1.478   7.155 -1.7067 -2.2860  1.4526
 4390TIP3    H228838   3.759   1.467   7.036  1.2341  1.1844 -1.4328
 4391TIP3   OH228839   4.400   3.415   6.921  0.2652 -0.2549  0.1035
 4391TIP3    H128840   4.464   3.470   6.967  1.9507 -2.0864  0.1302
 4391TIP3    H228841   4.341   3.384   6.990 -0.0930  0.7151  0.2420
 4392TIP3   OH228842   1.928   1.026   1.277  0.1050  0.4310 -0.3386
 4392TIP3    H128843   2.012   1.067   1.260 -0.3463  1.2639 -0.6322
 4392TIP3    H228844   1.872   1.098   1.309 -1.0154  0.2958 -1.8917
 4393TIP3   OH228845   6.216   2.380   0.542  0.7355 -0.0722 -0.4265
 4393TIP3    H128846   6.215   2.292   0.579  0.8553  0.2157  0.2923
 4393TIP3    H228847   6.261   2.433   0.608 -0.4255  0.7722 -0.2743
 4394TIP3   OH228848   3.729   2.528   0.977  0.1425  0.1299 -0.2398
 4394TIP3    H128849   3.795   2.592   0.952 -0.4809  0.9335  0.1387
 4394TIP3    H228850   3.724   2.534   1.072 -0.3157 -0.0841 -0.2489
 4395TIP3   OH228851   3.832   5.245   0.437 -0.4883 -0.1009  0.2221
 4395TIP3    H128852   3.908   5.277   0.388  0.6694 -1.2374  1.2409
 4395TIP3    H228853   3.834   5.293   0.520 -1.9510  1.1761 -0.4140
 4396TIP3   OH228854   0.368   1.053   6.852 -0.0478 -0.1730  0.2872
 4396TIP3    H128855   0.362   1.054   6.756 -1.1407 -1.1671  0.3308
 4396TIP3    H228856   0.439   1.114   6.872  0.2721 -0.0424 -1.1604
 4397TIP3   OH228857   0.205   4.687   1.855  0.1217  0.5873 -0.5649
 4397TIP3    H128858   0.162   4.770   1.871  0.0261  0.5666 -0.7201
 4397TIP3    H228859   0.134   4.624   1.844  0.1927  0.4167 -0.0903
 4398TIP3   OH228860   0.092   2.314   1.071 -0.3933  0.5152  0.2102
 4398TIP3    H128861   0.143   2.393   1.091 -0.0361  0.2083  0.5230
 4398TIP3    H228862   0.016   2.320   1.129  0.8206 -0.5582  2.0328
 4399TIP3   OH228863   6.260   3.816   1.060  0.0259  0.1471 -0.6791
 4399TIP3    H128864   6.312   3.886   1.020  1.8055  1.0152  2.7203
 4399TIP3    H228865   6.182   3.860   1.092  0.4671  0.3217  0.1891
 4400TIP3   OH228866   5.099   4.243   7.602 -0.4089  0.1813 -0.8837
 4400TIP3    H128867   5.190   4.221   7.581  0.3552  2.7222 -0.5235
 4400TIP3    H228868   5.102   4.333   7.633 -2.9329 -0.0050  0.1686
 4401TIP3   OH228869   2.204   4.558   0.728 -0.1588  0.1209 -0.0487
 4401TIP3    H128870   2.269   4.618   0.692 -1.2192  1.8617  0.8116
 4401TIP3    H228871   2.148   4.537   0.654  0.4186 -0.0931 -0.4350
 4402TIP3   OH228872   3.947   2.124   5.722 -0.0747  0.0128  0.2093
 4402TIP3    H128873   3.860   2.164   5.721 -0.3419 -0.2619  3.0474
 4402TIP3    H228874   4.006   2.195   5.746  0.1569 -0.2541  0.4477
 4403TIP3   OH228875   2.446   0.957   0.733  0.1099  0.0149 -0.4836
 4403TIP3    H128876   2.519   0.969   0.794 -0.4532  1.1018 -0.0010
 4403TIP3    H228877   2.369   0.985   0.782 -0.5676 -0.6217 -1.1678
 4404TIP3   OH228878   5.957   5.629   7.694 -0.1278  0.3083  1.1883
 4404TIP3    H128879   6.012   5.653   7.769  0.6875  0.9877  0.3928
 4404TIP3    H228880   6.003   5.664   7.618 -0.0453 -1.8970  0.1645
 4405TIP3   OH228881   4.864   4.248   0.467 -0.4834  0.1015  0.6668
 4405TIP3    H128882   4.847   4.205   0.551 -0.6923  0.0755  0.6124
 4405TIP3    H228883   4.910   4.329   0.490  1.2874 -0.8466  0.6874
 4406TIP3   OH228884   0.389   1.152   7.337 -0.2071  1.0573 -0.2779
 4406TIP3    H128885   0.365   1.159   7.245  0.2981  0.3348 -0.4757
 4406TIP3    H228886   0.305   1.145   7.383 -0.4346 -0.1787 -0.8334
 4407TIP3   OH228887   5.675   0.200   2.063  0.7547 -0.2915 -0.0792
 4407TIP3    H128888   5.755   0.212   2.011 -0.6335  1.8026 -1.9046
 4407TIP3    H228889   5.705   0.200   2.154  2.8955 -0.2790 -0.7318
 4408TIP3   OH228890   3.465   2.508   1.143  0.1819  1.0051 -0.2900
 4408TIP3    H128891   3.535   2.547   1.195  0.7962 -0.5507  0.1130
 4408TIP3    H228892   3.398   2.485   1.208  0.7136 -0.4383 -0.2086
 4409TIP3   OH228893   1.124   5.013   6.985  0.0210  0.3853 -0.3575
 4409TIP3    H128894   1.191   5.053   7.040  0.7566  0.1980 -1.0922
 4409TIP3    H228895   1.048   5.002   7.043  0.7737  0.1753  0.6100
 4410TIP3   OH228896   1.865   5.763   7.616 -0.5205  0.3347  0.8326
 4410TIP3    H128897   1.834   5.821   7.685 -0.0802 -0.3345  1.6124
 4410TIP3    H228898   1.914   5.821   7.557  0.3546  0.7085  1.8707
 4411TIP3   OH228899   6.177   3.773   0.131  0.4570  0.1114 -0.2383
 4411TIP3    H128900   6.103   3.769   0.070 -0.8169  0.4249  1.2328
 4411TIP3    H228901   6.145   3.827   0.203  1.4639 -1.2601  1.2914
 4412TIP3   OH228902   4.748   1.733   7.733  0.5840  0.4334  0.1919
 4412TIP3    H128903   4.728   1.820   7.767  0.1043 -0.0089  1.0817
 4412TIP3    H228904   4.776   1.683   7.810 -0.5966 -0.6299 -0.0242
 4413TIP3   OH228905   1.582   2.328   1.117  0.1886  0.0223 -0.7559
 4413TIP3    H128906   1.504   2.277   1.138  0.7448 -1.0164 -1.1271
 4413TIP3    H228907   1.563   2.415   1.151 -0.5313 -0.5840  0.4752
 4414TIP3   OH228908   3.486   4.510   6.173 -0.7992  0.1449  0.5347
 4414TIP3    H128909   3.547   4.488   6.103 -1.2374  1.5160 -0.3153
 4414TIP3    H228910   3.412   4.450   6.161 -0.0149 -0.9623  1.0664
 4415TIP3   OH228911   5.314   0.898   7.039  0.3127  0.2042  0.2259
 4415TIP3    H128912   5.225   0.873   7.064 -0.6235  2.5845 -0.4845
 4415TIP3    H228913   5.312   0.899   6.943  1.3822 -0.5697  0.1811
 4416TIP3   OH228914   0.507   5.823   1.028 -1.3836  0.1826  0.0139
 4416TIP3    H128915   0.463   5.739   1.013 -0.6079 -0.3022  0.3675
 4416TIP3    H228916   0.444   5.889   1.000 -2.1367 -0.5096  0.0524
 4417TIP3   OH228917   0.368   2.701   0.418 -0.6623 -0.0868  0.0780
 4417TIP3    H128918   0.296   2.756   0.386  0.1920  1.5616  0.8627
 4417TIP3    H228919   0.438   2.714   0.355  0.7714  2.5983  2.0400
 4418TIP3   OH228920   5.731   4.490   7.240 -0.4370  0.3758  0.4321
 4418TIP3    H128921   5.787   4.470   7.315 -1.5901 -1.1678  0.9161
 4418TIP3    H228922   5.779   4.558   7.192 -0.0393  2.0613  2.9969
 4419TIP3   OH228923   5.718   2.093   6.981  0.3061  0.0331  0.0445
 4419TIP3    H128924   5.673   2.027   6.929 -3.1115  2.2264 -0.0521
 4419TIP3    H228925   5.741   2.162   6.919 -3.0566  2.2838  1.0354
 4420TIP3   OH228926   2.403   5.018   2.154  0.1429  0.1848  0.1396
 4420TIP3    H128927   2.425   4.925   2.161 -2.5310 -0.5149  0.7171
 4420TIP3    H228928   2.404   5.049   2.245  0.3449  0.5242  0.0205
 4421TIP3   OH228929   4.064   0.816   0.795  0.2077 -0.2307  0.3843
 4421TIP3    H128930   3.983   0.858   0.766  1.8647  1.9479 -1.4196
 4421TIP3    H228931   4.088   0.864   0.874  0.7901  0.5704 -0.2628
 4422TIP3   OH228932   5.229   2.022   0.541 -0.0369 -0.4427 -0.3693
 4422TIP3    H128933   5.297   1.974   0.494  0.1212 -1.4526  0.8303
 4422TIP3    H228934   5.149   1.970   0.527 -0.5937  0.6976 -1.7118
 4423TIP3   OH228935   0.864   1.077   6.523  0.6320  0.0392  0.0680
 4423TIP3    H128936   0.902   1.034   6.600  1.1631 -1.0132 -0.7468
 4423TIP3    H228937   0.910   1.036   6.449  0.7452  1.6330 -0.7722
 4424TIP3   OH228938   5.153   5.141   0.804  0.0248 -0.0250 -0.2965
 4424TIP3    H128939   5.063   5.129   0.773 -0.2123  0.3299  0.2324
 4424TIP3    H228940   5.206   5.087   0.746 -0.3647  0.8877 -1.5430
 4425TIP3   OH228941   3.160   5.510   7.465  0.4099  0.3097  0.0554
 4425TIP3    H128942   3.154   5.542   7.375 -0.5550  2.1991  0.7253
 4425TIP3    H228943   3.078   5.463   7.480 -0.0522  1.1838  0.3431
 4426TIP3   OH228944   1.788   5.042   6.386  0.0294  0.0634  0.3272
 4426TIP3    H128945   1.737   5.119   6.360  0.1219  0.1226  0.3213
 4426TIP3    H228946   1.725   4.971   6.387  0.3974 -0.3809 -2.0598
 4427TIP3   OH228947   3.137   3.773   6.836  0.4516 -0.1325  0.1542
 4427TIP3    H128948   3.112   3.799   6.925  1.6700  0.6444  0.2946
 4427TIP3    H228949   3.220   3.726   6.848  1.4197  1.3030 -0.6997
 4428TIP3   OH228950   4.736   1.114   0.958 -0.1826  0.0201 -0.5325
 4428TIP3    H128951   4.668   1.160   1.007 -0.4900 -1.9298  0.9914
 4428TIP3    H228952   4.761   1.174   0.888  0.8471  3.3436  2.4169
 4429TIP3   OH228953   2.222   5.229   0.719  0.7151 -0.0115  0.1825
 4429TIP3    H128954   2.239   5.211   0.626 -0.4524  2.7262 -0.6593
 4429TIP3    H228955   2.256   5.152   0.765  2.4408 -0.9206 -2.3977
 4430TIP3   OH228956   4.305   1.068   0.608  0.3404  0.5678 -0.0839
 4430TIP3    H128957   4.348   1.065   0.522  0.6229 -0.5383  0.0769
 4430TIP3    H228958   4.216   1.096   0.588 -0.5920 -2.7074 -1.2407
 4431TIP3   OH228959   2.923   3.207   1.489  0.3072 -0.0057  0.3365
 4431TIP3    H128960   2.883   3.213   1.402 -0.1000  0.7197  0.5663
 4431TIP3    H228961   3.017   3.198   1.471  0.0994 -1.3399 -0.2003
 4432TIP3   OH228962   3.774   0.585   7.331 -0.3510  0.0643  0.2420
 4432TIP3    H128963   3.818   0.635   7.263  0.9319 -0.1372  0.8759
 4432TIP3    H228964   3.793   0.633   7.412 -1.7823  0.2594  0.4917
 4433TIP3   OH228965   0.481   1.325   6.413  0.5412 -0.9337 -0.0339
 4433TIP3    H128966   0.476   1.418   6.434 -2.1799 -1.3782  1.7740
 4433TIP3    H228967   0.515   1.322   6.323 -0.9417  1.8869 -0.7917
 4434TIP3   OH228968   2.588   2.609   2.166 -0.3403 -0.1416  0.2772
 4434TIP3    H128969   2.531   2.685   2.175 -1.1282 -0.6461 -0.2954
 4434TIP3    H228970   2.611   2.585   2.256 -0.4397  0.5073  0.4775
 4435TIP3   OH228971   3.563   5.822   7.619  0.3146 -0.0990  0.2691
 4435TIP3    H128972   3.501   5.764   7.574 -0.3024  1.0050 -0.3631
 4435TIP3    H228973   3.511   5.864   7.688  0.5732  0.1904  0.2905
 4436TIP3   OH228974   4.204   5.540   1.500 -0.0711 -0.4599  0.4386
 4436TIP3    H128975   4.270   5.550   1.568 -0.1430 -1.1156  0.6170
 4436TIP3    H228976   4.221   5.453   1.463 -0.5322 -0.4349  0.1606
 4437TIP3   OH228977   1.127   3.188   6.569 -0.1750  0.1344 -0.0190
 4437TIP3    H128978   1.069   3.264   6.567  1.6739  1.6311  0.0421
 4437TIP3    H228979   1.101   3.140   6.647 -2.8642 -0.5786 -1.2626
 4438TIP3   OH228980   5.816   1.249   1.643 -0.1014 -0.0525  0.4626
 4438TIP3    H128981   5.895   1.303   1.647 -1.0820  1.9836 -3.0581
 4438TIP3    H228982   5.764   1.278   1.718  0.8172  1.5436  0.5243
 4439TIP3   OH228983   3.818   1.261   7.577 -0.0475  0.4535 -0.0128
 4439TIP3    H128984   3.742   1.238   7.631 -0.9042 -1.4480 -1.8881
 4439TIP3    H228985   3.859   1.177   7.557  2.3430  1.4016  0.5652
 4440TIP3   OH228986   5.687   0.808   6.949 -0.0206  0.1211  0.5341
 4440TIP3    H128987   5.762   0.838   6.898  1.1167  0.4095  2.3018
 4440TIP3    H228988   5.614   0.862   6.917  0.7018  0.4908 -0.5500
 4441TIP3   OH228989   0.792   2.865   2.576 -0.3140 -0.2439  0.2298
 4441TIP3    H128990   0.765   2.837   2.489  0.9428 -0.8521  0.0133
 4441TIP3    H228991   0.726   2.930   2.602 -1.6094 -1.2255 -0.4910
 4442TIP3   OH228992   0.854   2.977   2.143 -0.3320  0.3707  0.5530
 4442TIP3    H128993   0.778   3.028   2.172 -1.8553 -2.2159  1.4968
 4442TIP3    H228994   0.927   3.012   2.194 -1.5083  0.9377  1.9327
 4443TIP3   OH228995   3.995   3.113   7.391 -0.3092  0.2663  0.2077
 4443TIP3    H128996   4.088   3.090   7.382 -0.4777 -0.6765  0.7976
 4443TIP3    H228997   3.954   3.035   7.427 -1.3629  0.6399 -0.1514
 4444TIP3   OH228998   1.837   3.486   0.754  0.4074  0.5042 -0.0966
 4444TIP3    H128999   1.907   3.426   0.729  0.5282  0.8702 -0.6575
 4444TIP3    H229000   1.756   3.438   0.736  0.5075  0.4129 -0.3086
 4445TIP3   OH229001   4.271   4.797   7.338 -0.4125  0.3064  0.1571
 4445TIP3    H129002   4.191   4.782   7.388 -1.0619  0.1873 -0.8696
 4445TIP3    H229003   4.328   4.846   7.396 -0.7288 -0.7072  1.3576
 4446TIP3   OH229004   3.960   0.357   1.633 -0.1863 -0.1101 -0.3933
 4446TIP3    H129005   3.997   0.274   1.603  0.1933  0.7174 -2.3475
 4446TIP3    H229006   4.009   0.377   1.713  3.9005  0.9795 -2.8443
 4447TIP3   OH229007   5.258   2.504   0.467 -0.3327  0.8986  0.6654
 4447TIP3    H129008   5.244   2.589   0.424  1.1231  1.2965  0.9401
 4447TIP3    H229009   5.260   2.525   0.560  1.2155  0.7691  0.6869
 4448TIP3   OH229010   6.283   0.753   1.251  0.2752 -0.5013 -0.1489
 4448TIP3    H129011   6.305   0.814   1.321  0.0653 -1.7101  1.0293
 4448TIP3    H229012   6.273   0.807   1.173  1.6618  0.7528  0.5016
 4449TIP3   OH229013   1.884   5.864   2.198  0.1011  0.0099 -0.0976
 4449TIP3    H129014   1.932   5.933   2.245 -0.8375 -0.4629  1.6393
 4449TIP3    H229015   1.952   5.802   2.172  1.2476  2.3066 -3.2713
 4450TIP3   OH229016   1.422   2.651   7.589 -0.0622  0.7473 -0.1596
 4450TIP3    H129017   1.507   2.674   7.626 -0.9086  2.0865  1.0436
 4450TIP3    H229018   1.423   2.555   7.584  1.6523  0.7607 -0.5480
 4451TIP3   OH229019   3.473   1.194   1.836 -0.5446  0.2062 -0.2723
 4451TIP3    H129020   3.506   1.234   1.917  0.2182  0.2857 -0.6150
 4451TIP3    H229021   3.415   1.124   1.866 -0.7672  0.6443  0.3393
 4452TIP3   OH229022   2.326   6.264   7.470 -0.1246 -0.0821  0.3834
 4452TIP3    H129023   2.386   6.332   7.441 -2.6284  2.3631  0.5112
 4452TIP3    H229024   2.352   6.246   7.560  1.8097 -0.8260 -0.2713
 4453TIP3   OH229025   3.308   4.361   7.544 -0.3263 -0.5710 -0.1221
 4453TIP3    H129026   3.319   4.455   7.557 -0.4404 -0.2667 -1.9512
 4453TIP3    H229027   3.213   4.348   7.539 -0.3762 -1.0174  1.4523
 4454TIP3   OH229028   3.135   0.502   0.298 -0.2506  0.0704 -0.0310
 4454TIP3    H129029   3.131   0.411   0.267 -2.7464 -0.0798  0.4946
 4454TIP3    H229030   3.043   0.528   0.305  0.3213  1.6337  2.7397
 4455TIP3   OH229031   1.803   1.956   0.053  0.2876  0.0241  0.2779
 4455TIP3    H129032   1.739   1.887   0.039  2.0470 -1.9813  1.4799
 4455TIP3    H229033   1.794   1.978   0.146  0.4225  0.7013  0.1358
 4456TIP3   OH229034   3.066   1.321   0.071  0.1950 -0.4480 -0.2133
 4456TIP3    H129035   3.161   1.305   0.069  0.0792 -1.1746 -2.3781
 4456TIP3    H229036   3.056   1.394   0.132  2.1126 -0.5430  0.2920
 4457TIP3   OH229037   4.829   4.450   0.168 -0.1734 -0.0015  0.2751
 4457TIP3    H129038   4.837   4.362   0.204 -1.5856 -0.0354  0.5486
 4457TIP3    H229039   4.912   4.492   0.190 -0.3423 -0.5486  2.1433
 4458TIP3   OH229040   3.800   2.304   2.253 -0.1777  0.6796  0.1900
 4458TIP3    H129041   3.791   2.246   2.178  1.0823  1.3463 -0.5040
 4458TIP3    H229042   3.884   2.281   2.292  0.1243  1.7024  0.1719
 4459TIP3   OH229043   3.307   5.381   6.680  0.6337 -0.2167 -0.2415
 4459TIP3    H129044   3.290   5.452   6.742  0.5361  0.4311 -0.9972
 4459TIP3    H229045   3.384   5.410   6.631 -0.0816 -0.0944 -1.3335
 4460TIP3   OH229046   2.501   1.904   2.597  0.1016 -0.3258 -0.1735
 4460TIP3    H129047   2.412   1.931   2.620  0.6980  0.6034  1.1959
 4460TIP3    H229048   2.494   1.873   2.506 -1.2015  1.8381 -0.8970
 4461TIP3   OH229049   0.166   0.873   7.577  0.3129  0.0482 -0.2777
 4461TIP3    H129050   0.248   0.915   7.552  1.0544 -0.4650  1.1654
 4461TIP3    H229051   0.099   0.939   7.557  1.1386  0.7456 -0.8334
 4462TIP3   OH229052   3.113   5.403   1.885  0.1268  0.4750  0.4262
 4462TIP3    H129053   3.136   5.358   1.966 -0.3503 -0.6565 -0.0543
 4462TIP3    H229054   3.130   5.339   1.816 -0.5191  1.0429 -0.2777
 4463TIP3   OH229055   0.232   0.669   0.580  0.4619 -0.1727 -0.3715
 4463TIP3    H129056   0.312   0.640   0.536  1.6027  1.3968  0.5304
 4463TIP3    H229057   0.240   0.635   0.669 -1.0075 -1.9063 -0.8548
 4464TIP3   OH229058   3.614   5.995   2.462  0.3070  0.5451 -0.1206
 4464TIP3    H129059   3.589   5.941   2.538  0.5200  0.2987 -0.2232
 4464TIP3    H229060   3.581   6.082   2.483 -1.9294 -0.0353 -0.8856
 4465TIP3   OH229061   1.775   6.263   2.070 -0.2371  0.5994  0.6308
 4465TIP3    H129062   1.742   6.255   1.981  1.9770 -0.1611 -0.1981
 4465TIP3    H229063   1.735   6.343   2.104 -2.4516 -0.0095 -0.4039
 4466TIP3   OH229064   1.833   0.907   2.370 -0.4984  0.2831 -0.5032
 4466TIP3    H129065   1.883   0.971   2.421 -1.0389  1.2057 -1.1072
 4466TIP3    H229066   1.744   0.942   2.368 -0.8365 -0.5614 -0.7386
 4467TIP3   OH229067   0.812   4.503   2.777  0.8527 -0.3453  0.0207
 4467TIP3    H129068   0.725   4.479   2.810  1.0210  0.0299  0.7555
 4467TIP3    H229069   0.805   4.494   2.682  0.6813 -2.5554  0.1897
 4468TIP3   OH229070   1.413   1.539   7.453 -0.2299  0.1550 -0.3579
 4468TIP3    H129071   1.365   1.461   7.480 -1.6078  1.2173  0.3398
 4468TIP3    H229072   1.394   1.547   7.360  1.5172 -1.3983 -0.9298
 4469TIP3   OH229073   2.804   3.572   1.670  0.4310 -0.5639  0.0768
 4469TIP3    H129074   2.866   3.502   1.693  1.3304  0.4008  0.7037
 4469TIP3    H229075   2.760   3.540   1.592 -0.5359 -2.6457  1.3977
 4470TIP3   OH229076   1.004   0.232   7.511 -0.2850  0.3106  0.5997
 4470TIP3    H129077   1.032   0.182   7.588 -0.0397  1.2263  1.1211
 4470TIP3    H229078   1.009   0.324   7.539 -0.8420  0.6253 -0.2972
 4471TIP3   OH229079   3.791   4.136   2.274 -0.0950 -0.0277  0.1255
 4471TIP3    H129080   3.702   4.104   2.286 -0.1186 -0.1837 -0.4565
 4471TIP3    H229081   3.837   4.065   2.231  0.0107  0.4803 -0.6234
 4472TIP3   OH229082   0.476   1.076   0.940  0.1568  0.1244 -0.4954
 4472TIP3    H129083   0.542   1.008   0.926  0.7677  1.0624 -2.6906
 4472TIP3    H229084   0.500   1.146   0.879 -1.6223  1.4413  0.2079
 4473TIP3   OH229085   3.160   3.204   6.622  0.0412  0.2994 -0.2505
 4473TIP3    H129086   3.211   3.243   6.551  0.7775 -1.6488 -0.8634
 4473TIP3    H229087   3.188   3.113   6.624 -1.8104 -0.2941  0.8951
 4474TIP3   OH229088   0.848   3.598   0.860 -0.1626  0.0709 -0.2210
 4474TIP3    H129089   0.923   3.625   0.912 -0.9107  3.2191 -0.5870
 4474TIP3    H229090   0.886   3.568   0.777  0.7460  0.9360 -0.1337
 4475TIP3   OH229091   4.137   1.916   0.139  0.0214 -0.2181  0.1523
 4475TIP3    H129092   4.201   1.851   0.167 -0.0190 -0.5122 -0.4243
 4475TIP3    H229093   4.099   1.949   0.221 -0.3775 -1.3456  0.4356
 4476TIP3   OH229094   1.755   4.848   1.348  0.2287 -0.1054  0.2375
 4476TIP3    H129095   1.750   4.944   1.344 -0.4261 -0.1426  0.0147
 4476TIP3    H229096   1.675   4.822   1.394 -0.6888 -0.6519 -1.5470
 4477TIP3   OH229097   3.098   1.108   7.490 -0.4743  0.2802 -0.6581
 4477TIP3    H129098   3.146   1.189   7.471 -0.7493  1.0764  1.6835
 4477TIP3    H229099   3.015   1.118   7.444 -0.7224  1.6193  0.0120
 4478TIP3   OH229100   0.436   4.089   7.120  0.2541 -0.0912 -0.1288
 4478TIP3    H129101   0.458   4.176   7.087 -0.7260 -0.5950 -2.2570
 4478TIP3    H229102   0.516   4.060   7.165  1.3772  1.0242 -1.3125
 4479TIP3   OH229103   1.099   1.033   2.048  0.3675  0.5728  0.3868
 4479TIP3    H129104   1.022   1.059   2.098 -0.2142 -0.5622  0.1135
 4479TIP3    H229105   1.064   0.994   1.968  1.1841 -1.0801  0.8007
 4480TIP3   OH229106   3.368   2.218   2.192 -0.0534  0.4787  0.5965
 4480TIP3    H129107   3.412   2.288   2.240  0.8227 -0.7934  1.7274
 4480TIP3    H229108   3.411   2.138   2.222  0.2329 -0.4333 -1.9766
 4481TIP3   OH229109   0.050   4.895   6.770  0.0354  0.5343  0.4786
 4481TIP3    H129110   0.073   4.977   6.813  0.9456  1.1571 -1.1181
 4481TIP3    H229111   0.020   4.921   6.683 -1.3192 -0.7155  0.5258
 4482TIP3   OH229112   5.592   4.509   0.241 -0.5767 -0.2896 -0.1405
 4482TIP3    H129113   5.621   4.485   0.329 -0.9896  0.7442  0.3076
 4482TIP3    H229114   5.668   4.551   0.201 -0.9798  1.1322  0.5120
 4483TIP3   OH229115   3.899   4.596   2.357  0.2288 -0.3997 -0.0548
 4483TIP3    H129116   3.993   4.579   2.358  0.3277  0.1565  0.4263
 4483TIP3    H229117   3.861   4.519   2.315  0.9288 -0.4669 -0.5780
 4484TIP3   OH229118   1.162   5.333   0.554 -0.9135  0.0008  0.7635
 4484TIP3    H129119   1.203   5.414   0.585 -0.5135  0.3170 -0.5594
 4484TIP3    H229120   1.172   5.335   0.459 -0.4407 -1.8386  0.7292
 4485TIP3   OH229121   0.104   5.117   7.496  0.0182  0.1309 -0.4009
 4485TIP3    H129122   0.172   5.102   7.430  1.7408  0.6353  1.1563
 4485TIP3    H229123   0.041   5.175   7.453  1.0318  0.3709 -1.6361
 4486TIP3   OH229124   3.518   5.607   0.833  0.5368 -0.0795 -0.2890
 4486TIP3    H129125   3.575   5.642   0.765  0.5358 -0.3852 -0.4519
 4486TIP3    H229126   3.570   5.610   0.913 -0.0237  1.8547  0.0565
 4487TIP3   OH229127   2.056   6.106   0.453  0.0799 -0.3606 -0.3017
 4487TIP3    H129128   2.128   6.085   0.512  1.0375 -0.7902 -1.5867
 4487TIP3    H229129   1.991   6.038   0.469  0.4662 -0.6562  0.0148
 4488TIP3   OH229130   0.899   3.284   7.195 -0.0770 -0.4167  0.2028
 4488TIP3    H129131   0.837   3.311   7.127  0.5000 -2.5710 -1.2912
 4488TIP3    H229132   0.891   3.188   7.198  2.6448 -0.7007  0.4623
 4489TIP3   OH229133   2.000   0.607   7.416 -0.7880  0.7607  1.0978
 4489TIP3    H129134   1.926   0.588   7.358 -0.8980  0.1613  1.4262
 4489TIP3    H229135   1.970   0.578   7.502  0.7881 -1.9750  0.8153
 4490TIP3   OH229136   5.071   4.648   1.413 -0.0624  0.3326 -0.5121
 4490TIP3    H129137   5.136   4.706   1.452  0.6392 -0.6027 -0.2662
 4490TIP3    H229138   4.993   4.660   1.468  0.8452 -0.8183  1.1302
 4491TIP3   OH229139   4.755   1.769   7.060 -0.3010  0.2299  0.4509
 4491TIP3    H129140   4.778   1.710   7.132 -0.4407  0.0267  0.3292
 4491TIP3    H229141   4.766   1.717   6.981 -0.2814  0.4112  0.3330
 4492TIP3   OH229142   3.968   1.754   1.842 -0.1812 -0.4693  0.0033
 4492TIP3    H129143   3.984   1.660   1.850  1.7327 -0.1234  0.6746
 4492TIP3    H229144   4.052   1.791   1.814 -1.0817  0.9779 -0.9346
 4493TIP3   OH229145   1.288   4.747   0.739  0.1493 -0.4064 -0.5556
 4493TIP3    H129146   1.343   4.671   0.719  0.1669 -0.5530  0.0436
 4493TIP3    H229147   1.226   4.752   0.666 -0.2162 -1.3302 -0.3126
 4494TIP3   OH229148   5.029   3.713   0.435 -0.0725  0.0179  0.1936
 4494TIP3    H129149   4.946   3.712   0.483 -0.3954  2.2346 -0.2193
 4494TIP3    H229150   5.071   3.795   0.461  0.6678  0.3158 -1.7790
 4495TIP3   OH229151   2.667   3.082   7.272 -0.4527 -0.2011  0.1131
 4495TIP3    H129152   2.612   3.154   7.241  0.1732 -0.1429 -0.9285
 4495TIP3    H229153   2.735   3.125   7.325  0.4910  0.1157 -1.3050
 4496TIP3   OH229154   4.185   3.522   0.170  0.0417 -0.1863 -0.3897
 4496TIP3    H129155   4.280   3.508   0.166 -0.1880 -2.3407  0.1084
 4496TIP3    H229156   4.164   3.565   0.087  1.3759 -0.3536 -0.8505
 4497TIP3   OH229157   2.639   1.910   0.703  0.1374  0.8871  0.3175
 4497TIP3    H129158   2.700   1.984   0.706  0.4213  0.7604 -1.4681
 4497TIP3    H229159   2.587   1.925   0.625 -1.3497  0.3557  1.1714
 4498TIP3   OH229160   0.245   4.581   1.414 -0.0295 -0.1508 -0.0743
 4498TIP3    H129161   0.306   4.652   1.433  0.4424 -0.1898 -1.3143
 4498TIP3    H229162   0.159   4.624   1.410 -0.0229  0.0050  1.0734
 4499TIP3   OH229163   1.921   3.546   2.168 -0.1629  0.1626 -0.1885
 4499TIP3    H129164   1.983   3.597   2.221 -0.3887  1.4848 -1.1470
 4499TIP3    H229165   1.882   3.484   2.230 -0.9727  2.1468  1.4083
 4500TIP3   OH229166   0.602   4.154   6.409  0.4010 -0.0574 -0.7045
 4500TIP3    H129167   0.588   4.186   6.320 -0.8718 -2.0198 -1.3079
 4500TIP3    H229168   0.523   4.180   6.456  0.8063  0.4658 -0.3120
 4501TIP3   OH229169   5.579   5.508   6.864 -0.1841 -0.4472 -0.2317
 4501TIP3    H129170   5.542   5.500   6.952 -0.0533 -1.9272 -0.2930
 4501TIP3    H229171   5.572   5.601   6.844  0.2594  0.0003  1.5412
 4502TIP3   OH229172   0.817   5.887   0.010 -0.0539 -0.1764 -0.0325
 4502TIP3    H129173   0.750   5.819   0.011  0.5566 -0.8295  1.9875
 4502TIP3    H229174   0.839   5.899  -0.082 -1.7632 -1.1136 -0.5897
 4503TIP3   OH229175   6.263   4.112   0.189 -0.1425  0.0156  0.2830
 4503TIP3    H129176   6.180   4.072   0.215  0.3089 -0.3728  1.1881
 4503TIP3    H229177   6.323   4.090   0.260  0.3593  1.5613  0.3626
 4504TIP3   OH229178   0.634   4.864   1.476 -0.6321 -0.1014  0.5356
 4504TIP3    H129179   0.721   4.882   1.511  0.0128 -1.5064 -0.2731
 4504TIP3    H229180   0.578   4.929   1.518  0.8973  1.2591  0.5745
 4505TIP3   OH229181   4.522   5.396   1.850 -0.7444  0.0136 -0.6160
 4505TIP3    H129182   4.489   5.425   1.934 -0.7797 -0.3580 -0.5000
 4505TIP3    H229183   4.574   5.318   1.870 -0.5215  0.0857 -0.9014
 4506TIP3   OH229184   5.668   0.213   6.509  0.0789  0.1044  0.0345
 4506TIP3    H129185   5.582   0.250   6.527 -0.5183 -1.1974 -0.0623
 4506TIP3    H229186   5.726   0.289   6.503 -0.9140  0.9521  0.8656
 4507TIP3   OH229187   2.629   1.160   1.853 -0.2776 -0.5167 -0.0737
 4507TIP3    H129188   2.700   1.175   1.916 -0.0791 -0.6730 -0.2629
 4507TIP3    H229189   2.595   1.247   1.835 -0.8704 -0.5308  0.8721
 4508TIP3   OH229190   1.815   1.303   6.114 -0.0957 -0.3139  0.1940
 4508TIP3    H129191   1.790   1.255   6.036  2.2953 -1.8843  0.2776
 4508TIP3    H229192   1.816   1.395   6.087  0.1042 -0.7704 -1.4453
 4509TIP3   OH229193   5.944   2.782   6.448  0.2828 -0.1223 -0.7161
 4509TIP3    H129194   5.892   2.847   6.496  0.1423  0.0585 -1.1003
 4509TIP3    H229195   5.922   2.698   6.488 -1.9587 -0.3425 -2.2118
 4510TIP3   OH229196   4.249   3.185   0.859 -0.1509  0.2806 -0.0485
 4510TIP3    H129197   4.183   3.162   0.793  1.1551  1.3051 -1.8264
 4510TIP3    H229198   4.332   3.153   0.821  0.8629  2.4008  0.2422
 4511TIP3   OH229199   4.857   6.133   1.151  0.1026 -0.3178  0.2773
 4511TIP3    H129200   4.923   6.200   1.168 -0.5106  0.1997  0.6496
 4511TIP3    H229201   4.898   6.074   1.087  0.7995  0.1763  0.2668
 4512TIP3   OH229202   2.819   3.220   7.449 -0.1104  0.7301 -0.2624
 4512TIP3    H129203   2.760   3.289   7.478  3.0191  3.5513 -0.0697
 4512TIP3    H229204   2.863   3.190   7.528  0.1953  0.1240 -0.6497
 4513TIP3   OH229205   0.046   4.021   7.717  0.4713  0.5488 -0.3183
 4513TIP3    H129206  -0.012   4.083   7.673 -0.2185  0.7395  0.8103
 4513TIP3    H229207   0.019   4.025   7.809  1.8694  0.1776  0.1253
 4514TIP3   OH229208   5.688   1.080   0.035  0.4821 -0.6193  0.1246
 4514TIP3    H129209   5.770   1.034   0.052  0.7200  0.2439  1.4103
 4514TIP3    H229210   5.670   1.129   0.115 -1.5663 -1.1868  0.0723
 4515TIP3   OH229211   2.590   0.167   1.232 -0.0337  0.2334  0.2301
 4515TIP3    H129212   2.669   0.219   1.216  0.2662 -0.7566 -1.8334
 4515TIP3    H229213   2.570   0.128   1.147 -2.2937 -0.1905  0.9049
 4516TIP3   OH229214   2.425   5.357   7.171  0.1681 -0.0817  0.0707
 4516TIP3    H129215   2.420   5.268   7.135 -0.2319  0.0345 -0.1688
 4516TIP3    H229216   2.400   5.347   7.263 -0.5869 -0.1175 -0.1305
 4517TIP3   OH229217   4.156   5.544   1.988 -0.1292  0.0001  0.1395
 4517TIP3    H129218   4.250   5.533   2.005 -0.0033 -0.6652 -0.8779
 4517TIP3    H229219   4.119   5.566   2.073  0.9356  0.1811  0.5802
 4518TIP3   OH229220   3.999   2.567   1.682  0.0771  0.1014  0.2865
 4518TIP3    H129221   4.033   2.480   1.661 -1.0749 -0.3203  0.0803
 4518TIP3    H229222   4.041   2.625   1.618 -2.1083 -0.9071 -2.2882
 4519TIP3   OH229223   5.553   2.370   1.299 -0.1503 -0.9631  0.0341
 4519TIP3    H129224   5.641   2.363   1.264  0.4658  2.7795  0.4340
 4519TIP3    H229225   5.549   2.458   1.338 -3.7236 -1.3762  0.9778
 4520TIP3   OH229226   0.106   2.921   6.318  0.5920 -0.1264 -0.2879
 4520TIP3    H129227   0.017   2.893   6.340  0.5703 -0.2113 -0.4883
 4520TIP3    H229228   0.102   2.941   6.225  0.8929 -0.5620 -0.3979
 4521TIP3   OH229229   1.788   0.719   0.410  0.0020 -0.0189  0.7461
 4521TIP3    H129230   1.833   0.708   0.494  0.1544 -0.9201  0.5520
 4521TIP3    H229231   1.833   0.660   0.350 -1.8925 -1.5594  0.7425
 4522TIP3   OH229232   0.980   4.158   0.937 -0.4662 -0.1612 -0.2134
 4522TIP3    H129233   0.927   4.188   0.863  1.2164  2.4081 -0.5177
 4522TIP3    H229234   1.069   4.154   0.903 -0.1947 -3.4294  0.5332
 4523TIP3   OH229235   5.441   2.118   1.489  0.6466 -0.4451  0.4984
 4523TIP3    H129236   5.468   2.075   1.408 -1.7415 -0.0036 -0.5995
 4523TIP3    H229237   5.492   2.198   1.491  0.8130 -0.5084 -0.5275
 4524TIP3   OH229238   4.157   4.552   5.939  0.0213 -0.0423  0.0623
 4524TIP3    H129239   4.119   4.624   5.988 -1.5997 -0.7458 -0.1011
 4524TIP3    H229240   4.084   4.517   5.887  0.9916 -1.1977 -0.5760
 4525TIP3   OH229241   6.138   5.547   1.128  0.7459  0.3210  0.1645
 4525TIP3    H129242   6.085   5.470   1.148  1.1324 -0.0958 -0.3840
 4525TIP3    H229243   6.110   5.613   1.192 -0.7534  0.2648 -0.3794
 4526TIP3   OH229244   2.669   5.984   7.240  0.0715 -0.1089  0.3958
 4526TIP3    H129245   2.750   5.966   7.286 -0.0286  0.5906  0.8716
 4526TIP3    H229246   2.603   5.991   7.309 -0.1508  0.5828  0.1251
 4527TIP3   OH229247   0.843   0.858   0.696 -0.1489  0.2385 -0.6034
 4527TIP3    H129248   0.844   0.954   0.688  0.0862  0.3723  0.7446
 4527TIP3    H229249   0.779   0.841   0.766  2.2424 -0.3293  1.6035
 4528TIP3   OH229250   3.757   3.938   1.429  0.0329  0.6808  0.6399
 4528TIP3    H129251   3.731   3.848   1.445 -0.6217  1.0948  2.1647
 4528TIP3    H229252   3.745   3.951   1.335 -0.5830 -0.5837  0.5240
 4529TIP3   OH229253   5.806   2.639   7.553 -0.4349 -0.1116 -0.3071
 4529TIP3    H129254   5.768   2.640   7.465 -0.1742  2.1618 -0.4565
 4529TIP3    H229255   5.860   2.561   7.555 -1.0151 -0.5924 -1.9238
 4530TIP3   OH229256   5.861   4.704   6.699 -0.0419 -0.1075  0.4931
 4530TIP3    H129257   5.786   4.735   6.648  0.6704 -1.2395 -1.3107
 4530TIP3    H229258   5.936   4.715   6.642  1.0109 -0.1974  1.8028
 4531TIP3   OH229259   1.768   1.626   0.827 -0.1383 -0.0652  0.0042
 4531TIP3    H129260   1.830   1.555   0.846  0.4968  0.7347  1.0253
 4531TIP3    H229261   1.815   1.706   0.851 -0.5718  0.7766 -1.8065
 4532TIP3   OH229262   3.966   5.796   0.913 -0.1330  0.5971 -0.3109
 4532TIP3    H129263   4.020   5.840   0.847  0.1187  0.1090 -0.4332
 4532TIP3    H229264   4.029   5.766   0.979 -0.3718  0.9926  0.1020
 4533TIP3   OH229265   2.801   1.864   7.109 -0.1782  0.0867 -0.3790
 4533TIP3    H129266   2.893   1.839   7.107 -0.0653  0.4909 -0.3090
 4533TIP3    H229267   2.753   1.781   7.100  0.1891 -0.1735  0.0383
 4534TIP3   OH229268   6.052   0.381   0.217 -0.2002  0.0525 -0.4865
 4534TIP3    H129269   5.979   0.396   0.157  0.6722  0.1119 -1.5639
 4534TIP3    H229270   6.130   0.401   0.165  0.5309  4.0900  1.8000
 4535TIP3   OH229271   0.715   3.396   7.026 -0.1849 -0.1525 -0.2943
 4535TIP3    H129272   0.664   3.477   7.027 -0.7200 -0.4847 -0.3707
 4535TIP3    H229273   0.721   3.371   6.934  2.2323  1.1827 -0.5801
 4536TIP3   OH229274   5.240   5.145   6.319 -0.1848  0.2206  0.4139
 4536TIP3    H129275   5.201   5.066   6.280  0.0671  1.1494 -1.8867
 4536TIP3    H229276   5.166   5.191   6.359 -0.3684 -1.0358  1.5911
 4537TIP3   OH229277   5.589   5.950   1.822 -0.1597  0.1389 -0.0249
 4537TIP3    H129278   5.512   5.900   1.848  1.0990 -2.0430 -0.2773
 4537TIP3    H229279   5.663   5.903   1.860  1.0931  2.1106  0.1325
 4538TIP3   OH229280   5.630   5.834   7.377 -0.5537  0.1792  0.2166
 4538TIP3    H129281   5.675   5.796   7.302  1.8249  1.1762  1.0594
 4538TIP3    H229282   5.600   5.758   7.428 -1.9626 -0.5036 -1.5022
 4539TIP3   OH229283   3.111   5.029   6.820  0.1939 -0.3529 -0.0175
 4539TIP3    H129284   3.070   5.076   6.748  2.6193  2.9036  0.5351
 4539TIP3    H229285   3.205   5.034   6.803  0.7313 -1.9379  1.9905
 4540TIP3   OH229286   5.738   0.107   0.446  0.4069 -0.3664 -0.3370
 4540TIP3    H129287   5.673   0.171   0.418  0.1773 -1.1198 -1.6195
 4540TIP3    H229288   5.811   0.118   0.385  1.2218 -0.0031  0.6592
 4541TIP3   OH229289   3.373   5.838   1.103 -0.3341 -0.7473  0.2313
 4541TIP3    H129290   3.366   5.925   1.144 -1.7275 -1.2093  1.0454
 4541TIP3    H229291   3.464   5.833   1.074 -0.0040  0.6608  0.9078
 4542TIP3   OH229292   4.683   2.385   0.627 -0.4325  0.5546 -0.1070
 4542TIP3    H129293   4.687   2.349   0.716 -0.7950  3.1211  1.0161
 4542TIP3    H229294   4.615   2.333   0.584  0.4283 -1.3921  0.7432
 4543TIP3   OH229295   5.447   5.097   0.773 -0.2499  0.0590 -0.0655
 4543TIP3    H129296   5.509   5.144   0.829  0.2438 -1.4814  0.7330
 4543TIP3    H229297   5.469   5.126   0.684  1.4976 -0.2589  0.2114
 4544TIP3   OH229298   0.485   5.158   2.721 -0.3771  0.0239  0.4344
 4544TIP3    H129299   0.488   5.107   2.802 -1.2292 -1.4317 -0.3948
 4544TIP3    H229300   0.518   5.098   2.654  2.1057  1.7924 -0.0665
 4545TIP3   OH229301   3.794   2.853   0.837 -0.0499 -0.2016 -0.2327
 4545TIP3    H129302   3.841   2.829   0.757 -1.2216 -0.5697 -0.8322
 4545TIP3    H229303   3.719   2.904   0.806  0.9296  1.9939  0.8260
 4546TIP3   OH229304   4.910   3.290   1.063  0.0953  0.1785  0.2224
 4546TIP3    H129305   4.924   3.383   1.050  0.9934  0.4490  2.6250
 4546TIP3    H229306   4.822   3.284   1.099  0.0717  0.0968  0.1523
 4547TIP3   OH229307   5.213   2.313   7.011  0.3198 -0.2298 -0.3354
 4547TIP3    H129308   5.195   2.225   7.046  0.0911 -0.1976 -0.3734
 4547TIP3    H229309   5.301   2.333   7.044  1.5664 -1.5910 -2.5568
 4548TIP3   OH229310   1.427   0.411   2.198  0.5883  0.5119  0.4276
 4548TIP3    H129311   1.494   0.389   2.134  0.9808  2.7449  0.0053
 4548TIP3    H229312   1.455   0.367   2.279  1.6559  0.0773 -0.1599
 4549TIP3   OH229313   5.669   3.440   5.770  0.1200  0.2312  0.2152
 4549TIP3    H129314   5.667   3.403   5.858 -0.1349 -0.2754  0.0004
 4549TIP3    H229315   5.622   3.523   5.778  0.9940  0.6795  0.7734
 4550TIP3   OH229316   5.059   5.791   1.498  0.3773  0.4934  0.0573
 4550TIP3    H129317   5.105   5.754   1.423 -0.5391  0.2853 -0.4260
 4550TIP3    H229318   5.127   5.833   1.550  1.0877  0.2808 -0.6747
 4551TIP3   OH229319   0.477   3.404   2.214 -0.0905  0.0686  0.4175
 4551TIP3    H129320   0.542   3.463   2.254  1.2103  0.6306 -2.3344
 4551TIP3    H229321   0.486   3.322   2.263  3.5971 -0.2769 -0.5071
 4552TIP3   OH229322   3.721   0.250   1.226  0.5364  0.2876  0.5320
 4552TIP3    H129323   3.735   0.196   1.148 -0.2804  0.1862  0.4545
 4552TIP3    H229324   3.657   0.315   1.199 -1.5644 -1.1601  1.7699
 4553TIP3   OH229325   2.835   3.842   1.569 -0.3192 -0.0823 -0.0072
 4553TIP3    H129326   2.756   3.860   1.621  0.2723 -0.1586  0.9344
 4553TIP3    H229327   2.871   3.762   1.608  1.7510  1.4458  1.4398
 4554TIP3   OH229328   3.361   0.826   7.671  0.5844 -0.3719  0.4191
 4554TIP3    H129329   3.440   0.773   7.679 -0.7527 -2.2929  1.6655
 4554TIP3    H229330   3.311   0.808   7.751 -1.3413  0.3671 -0.5502
 4555TIP3   OH229331   2.852   4.103   7.382  0.2110 -0.2393 -0.0332
 4555TIP3    H129332   2.872   4.018   7.421  2.1667 -0.3165 -1.0962
 4555TIP3    H229333   2.763   4.095   7.350  0.6600 -2.2026 -0.8811
 4556TIP3   OH229334   5.482   1.161   2.843 -0.2238  0.0575  0.1770
 4556TIP3    H129335   5.461   1.082   2.793 -1.6144  0.1199  0.6034
 4556TIP3    H229336   5.570   1.185   2.815  0.5231 -2.0543  0.5764
 4557TIP3   OH229337   4.905   5.686   6.615  0.3545  0.4847 -0.5229
 4557TIP3    H129338   4.938   5.743   6.546  1.6206 -0.4733 -0.7422
 4557TIP3    H229339   4.983   5.656   6.661 -0.4056  0.2649  0.6570
 4558TIP3   OH229340   1.807   1.937   1.060 -0.3083  0.4196  0.1701
 4558TIP3    H129341   1.892   1.973   1.084 -0.1582  0.8751 -0.9680
 4558TIP3    H229342   1.744   1.996   1.101 -0.0891  0.0968  0.9973
 4559TIP3   OH229343   2.013   5.103   0.081 -0.6849 -0.1325  0.9293
 4559TIP3    H129344   2.088   5.077   0.133  0.0178  0.7493  0.3928
 4559TIP3    H229345   2.000   5.031   0.020 -0.1435 -0.2121  0.9035
 4560TIP3   OH229346   5.170   5.982   1.092 -0.3348  0.1420 -0.0740
 4560TIP3    H129347   5.086   5.938   1.103 -0.7232  0.8727 -0.0493
 4560TIP3    H229348   5.224   5.919   1.045 -1.0268 -0.1877 -0.4452
 4561TIP3   OH229349   5.978   5.524   6.854  0.6696 -0.2837 -0.5428
 4561TIP3    H129350   6.027   5.606   6.857  0.9120 -0.4445  0.6155
 4561TIP3    H229351   5.943   5.514   6.943  1.2105 -1.7568 -0.4553
 4562TIP3   OH229352   5.664   0.601   0.219  0.1242 -0.5658 -0.0791
 4562TIP3    H129353   5.597   0.667   0.236  0.2275 -0.3132 -0.6018
 4562TIP3    H229354   5.641   0.566   0.132  0.9824 -0.0662 -0.5250
 4563TIP3   OH229355   3.777   1.312   2.622  1.0109 -0.2589 -0.1466
 4563TIP3    H129356   3.689   1.306   2.586  0.9664  0.8441 -0.2524
 4563TIP3    H229357   3.766   1.359   2.705  1.5453  0.2178 -0.3406
 4564TIP3   OH229358   4.655   2.613   7.329  0.5857 -0.2873  0.0165
 4564TIP3    H129359   4.590   2.642   7.394  0.9070  1.0603 -0.2200
 4564TIP3    H229360   4.619   2.640   7.245  1.6397  0.9324 -0.0818
 4565TIP3   OH229361   2.333   2.951   2.571 -0.1266  0.3266 -0.2783
 4565TIP3    H129362   2.386   2.915   2.642  0.6013  1.7678 -0.0495
 4565TIP3    H229363   2.276   2.879   2.545 -1.4861  0.1770  2.7414
 4566TIP3   OH229364   5.481   3.930   7.121 -0.3927  0.1886 -0.3471
 4566TIP3    H129365   5.515   3.892   7.203 -1.7419  2.6604  1.4875
 4566TIP3    H229366   5.388   3.905   7.121 -0.7042  1.3294 -0.4035
 4567TIP3   OH229367   3.108   4.847   1.058  0.0846 -0.1192 -0.1614
 4567TIP3    H129368   3.041   4.780   1.068 -0.1948  0.4260  2.0942
 4567TIP3    H229369   3.174   4.805   1.003 -1.3411 -1.2380 -1.1021
 4568TIP3   OH229370   4.015   1.078   7.433  0.5007 -0.0625 -0.5022
 4568TIP3    H129371   4.089   1.093   7.493  1.1905  0.4646 -1.4530
 4568TIP3    H229372   3.968   1.004   7.471  0.9095  0.2711  0.6959
 4569TIP3   OH229373   2.824   2.106   7.217 -0.4848 -0.0267  0.0093
 4569TIP3    H129374   2.744   2.111   7.270 -0.4219 -2.9338  0.5479
 4569TIP3    H229375   2.820   2.020   7.176  2.4563 -0.3522  0.1867
 4570TIP3   OH229376   0.147   3.375   6.409  0.3950  0.1839 -0.5409
 4570TIP3    H129377   0.053   3.394   6.411  0.7681  2.1886  0.0643
 4570TIP3    H229378   0.177   3.411   6.325  0.9782  1.6052  0.2478
 4571TIP3   OH229379   0.484   4.958   1.710 -0.4181 -0.0576  0.4240
 4571TIP3    H129380   0.558   4.953   1.770  1.1004 -0.8452 -1.4013
 4571TIP3    H229381   0.434   5.034   1.739  1.1416  0.5364  1.6863
 4572TIP3   OH229382   1.221   4.769   1.184 -0.0055 -0.0493 -0.1960
 4572TIP3    H129383   1.302   4.790   1.139  0.1340  2.0067  0.9123
 4572TIP3    H229384   1.153   4.780   1.118  0.0410  4.1861  0.1753
 4573TIP3   OH229385   3.864   1.313   0.905 -0.1844  0.3734 -0.0928
 4573TIP3    H129386   3.914   1.246   0.953  0.9485  0.2643 -1.3564
 4573TIP3    H229387   3.883   1.394   0.952  0.8368  0.2571 -0.2767
 4574TIP3   OH229388   5.922   5.350   0.514  0.0673 -0.3665 -0.3727
 4574TIP3    H129389   5.956   5.326   0.428  0.5113 -2.3729  0.3132
 4574TIP3    H229390   5.914   5.446   0.511  0.3414 -0.3641 -2.5187
 4575TIP3   OH229391   4.220   5.828   0.135 -0.1848  0.2418 -0.6493
 4575TIP3    H129392   4.127   5.807   0.136 -0.0947 -0.2167 -1.2408
 4575TIP3    H229393   4.263   5.747   0.110  0.3505  0.5453 -0.7382
 4576TIP3   OH229394   0.199   1.747   0.050 -0.4643  0.6999 -0.4378
 4576TIP3    H129395   0.259   1.728   0.122 -1.8350 -1.0325  0.3297
 4576TIP3    H229396   0.255   1.765  -0.024  0.9978 -0.0505  0.4472
 4577TIP3   OH229397   3.533   1.755   1.708 -0.2127 -0.2217  0.6650
 4577TIP3    H129398   3.437   1.760   1.707 -0.3149 -1.8368 -0.9656
 4577TIP3    H229399   3.552   1.683   1.769 -0.0006  0.2629  1.1835
 4578TIP3   OH229400   3.442   3.477   1.598 -1.0385 -0.0542 -0.3331
 4578TIP3    H129401   3.435   3.394   1.551 -0.9130  0.6698 -1.6711
 4578TIP3    H229402   3.352   3.502   1.616 -1.0616 -0.7124  0.5181
 4579TIP3   OH229403   2.049   1.830   7.480 -0.2545 -0.7751  0.3690
 4579TIP3    H129404   2.089   1.913   7.506 -1.9976  0.2726 -0.1962
 4579TIP3    H229405   2.049   1.778   7.560  0.4085 -0.0611  0.8522
 4580TIP3   OH229406   1.039   3.926   7.208 -0.0330  0.6449  0.0837
 4580TIP3    H129407   1.133   3.917   7.222 -0.0805 -0.7481 -0.3469
 4580TIP3    H229408   1.004   3.956   7.292  0.2623 -2.9615  1.6539
 4581TIP3   OH229409   5.704   4.997   0.296 -0.1270  0.3575  0.9456
 4581TIP3    H129410   5.724   5.028   0.384  0.2821  0.0556  0.9584
 4581TIP3    H229411   5.637   4.930   0.308 -0.0063  0.2528  1.0343
 4582TIP3   OH229412   3.383   4.838   1.197  0.0624 -0.8292 -0.4441
 4582TIP3    H129413   3.437   4.853   1.274  0.3781 -1.0862 -0.6102
 4582TIP3    H229414   3.295   4.824   1.231  0.4323 -2.2954 -0.0169
 4583TIP3   OH229415   0.744   1.369   7.632  0.3191  0.8080  0.2644
 4583TIP3    H129416   0.790   1.339   7.554  1.0440 -1.0700  1.3279
 4583TIP3    H229417   0.779   1.457   7.648  2.3067  0.1294  0.0337
 4584TIP3   OH229418   5.124   1.899   5.864  0.0559  0.4365  0.2742
 4584TIP3    H129419   5.120   1.860   5.776 -0.9834  0.2905  0.3699
 4584TIP3    H229420   5.081   1.984   5.854  2.7098  1.8353 -0.0382
 4585TIP3   OH229421   3.832   5.768   6.716 -0.0908  0.6721 -0.0654
 4585TIP3    H129422   3.859   5.795   6.803  0.3555  0.7580 -0.2251
 4585TIP3    H229423   3.834   5.672   6.719 -2.7507  0.5765  0.8323
 4586TIP3   OH229424   0.861   0.876   1.097  0.3030 -0.8460  0.2462
 4586TIP3    H129425   0.925   0.946   1.082  0.8113 -1.6465 -1.6735
 4586TIP3    H229426   0.889   0.805   1.039 -0.7366 -2.3094  1.4508
 4587TIP3   OH229427   5.795   5.652   1.743 -0.3335 -0.2227 -0.1897
 4587TIP3    H129428   5.712   5.609   1.724 -0.3728 -0.2925  0.1232
 4587TIP3    H229429   5.825   5.686   1.659 -1.0663  0.4998 -0.1703
 4588TIP3   OH229430   3.018   0.795   0.694  0.3109  0.1971 -0.0758
 4588TIP3    H129431   3.071   0.715   0.694 -0.6681 -0.4857  1.2581
 4588TIP3    H229432   2.959   0.784   0.619  1.3705  0.5223 -0.9864
 4589TIP3   OH229433   0.178   2.820   0.265  0.2033  0.0787 -0.0161
 4589TIP3    H129434   0.084   2.804   0.256  0.0499 -0.4916  2.0806
 4589TIP3    H229435   0.206   2.849   0.178 -2.2018  1.8186 -0.3191
 4590TIP3   OH229436   2.074   1.780   1.211  0.8300  0.0523  0.6602
 4590TIP3    H129437   2.127   1.835   1.268 -0.0767 -0.5674  2.1767
 4590TIP3    H229438   1.987   1.780   1.252  0.2038 -0.6150 -0.5984
 4591TIP3   OH229439   5.238   6.271   7.637 -0.2124 -0.3206  0.0999
 4591TIP3    H129440   5.223   6.211   7.711 -0.9038  1.8396  1.8079
 4591TIP3    H229441   5.180   6.345   7.655 -0.0830  0.4651 -2.4464
 4592TIP3   OH229442   4.067   4.523   0.946  0.0395 -0.0780  0.1620
 4592TIP3    H129443   3.987   4.500   0.993  0.2145  0.0271  0.5141
 4592TIP3    H229444   4.098   4.441   0.910  0.0171 -0.1945  0.4073
 4593TIP3   OH229445   5.950   5.124   0.889  0.4056 -0.2669 -0.2479
 4593TIP3    H129446   6.046   5.120   0.884  0.4811  1.4302 -1.2368
 4593TIP3    H229447   5.920   5.052   0.833  1.0831 -0.9120  0.1975
 4594TIP3   OH229448   2.205   2.203   6.718 -0.3197 -0.3666  0.9048
 4594TIP3    H129449   2.300   2.198   6.726 -0.1856 -0.7209 -0.6533
 4594TIP3    H229450   2.176   2.112   6.713 -0.4951 -0.2529 -0.8496
 4595TIP3   OH229451   2.515   3.801   7.639 -0.2507 -0.0432  0.3262
 4595TIP3    H129452   2.465   3.882   7.630  1.2469  0.9736  0.7256
 4595TIP3    H229453   2.485   3.745   7.567  0.8276  2.0413 -1.8552
 4596TIP3   OH229454   5.796   2.798   6.195 -0.2476  0.5980  0.3909
 4596TIP3    H129455   5.854   2.767   6.264 -0.9278  0.5907  0.9760
 4596TIP3    H229456   5.852   2.851   6.138  0.7991 -1.1906 -0.3061
 4597TIP3   OH229457   0.451   5.051   6.269 -0.0850  0.2199  0.0190
 4597TIP3    H129458   0.429   5.007   6.186  0.5004  1.3307 -0.7486
 4597TIP3    H229459   0.517   4.994   6.309  1.8329  1.0665 -1.7024
 4598TIP3   OH229460   4.489   2.709   0.859  0.3245 -0.0834 -0.0423
 4598TIP3    H129461   4.442   2.659   0.792 -2.9499  1.9649  0.4909
 4598TIP3    H229462   4.528   2.782   0.811  0.5943 -0.2676 -0.1062
 4599TIP3   OH229463   1.275   6.102   0.459  0.2029 -0.0792 -0.4206
 4599TIP3    H129464   1.206   6.107   0.525 -0.4627  1.5036 -1.1951
 4599TIP3    H229465   1.344   6.160   0.491 -1.0444  2.5015 -2.0720
 4600TIP3   OH229466   5.578   4.684   1.836  0.6691  0.6941  0.9033
 4600TIP3    H129467   5.492   4.684   1.794  1.4471 -1.2006 -0.8335
 4600TIP3    H229468   5.630   4.744   1.783  1.1918 -0.4267  0.1036
 4601TIP3   OH229469   5.408   0.107   7.084 -0.0660  0.5362  0.2970
 4601TIP3    H129470   5.328   0.072   7.046  0.7601 -2.5730  1.0587
 4601TIP3    H229471   5.382   0.140   7.170 -0.6273  0.0183  0.3294
 4602TIP3   OH229472   6.253   5.950   2.422 -0.3108 -0.3738  0.6083
 4602TIP3    H129473   6.317   5.929   2.353 -0.1064 -1.5783  1.1335
 4602TIP3    H229474   6.228   5.864   2.457 -4.1174 -0.2215 -1.2549
 4603TIP3   OH229475   5.735   5.128   6.404 -0.4239 -0.5877  0.2511
 4603TIP3    H129476   5.819   5.139   6.359 -0.1341  1.0695  1.0954
 4603TIP3    H229477   5.757   5.085   6.486 -0.4825 -0.7193  0.1969
 4604TIP3   OH229478   6.201   0.447   1.310  0.2752  0.1677  0.3454
 4604TIP3    H129479   6.115   0.431   1.273  0.4156 -2.2345  0.8942
 4604TIP3    H229480   6.257   0.463   1.234 -0.6887  2.2091  0.0117
 4605TIP3   OH229481   2.744   4.864   1.692  0.0629 -0.2697  0.0421
 4605TIP3    H129482   2.800   4.802   1.646  0.4775  0.8730 -1.0470
 4605TIP3    H229483   2.666   4.870   1.636  0.0396  0.1977  0.1245
 4606TIP3   OH229484   3.193   1.702   7.373 -0.0374  0.6680 -0.4946
 4606TIP3    H129485   3.172   1.649   7.296 -0.7624 -0.9545  0.7371
 4606TIP3    H229486   3.258   1.649   7.421 -1.4586  0.3890  1.2352
 4607TIP3   OH229487   4.863   1.288   2.412  0.4171 -0.0100 -0.8723
 4607TIP3    H129488   4.877   1.304   2.505  0.5198 -1.6472 -0.5645
 4607TIP3    H229489   4.882   1.371   2.369 -1.3288  1.2821  0.7028
 4608TIP3   OH229490   2.631   0.193   6.924  0.2131 -0.3445  0.2315
 4608TIP3    H129491   2.615   0.133   6.997 -1.9837  0.2801  0.3381
 4608TIP3    H229492   2.668   0.271   6.965 -1.1550  0.0625  0.7248
 4609TIP3   OH229493   1.101   5.533   1.457 -0.4771 -0.4807 -0.6979
 4609TIP3    H129494   1.005   5.533   1.458 -0.5139 -1.4330 -1.8764
 4609TIP3    H229495   1.124   5.440   1.462  0.3115 -0.4408 -2.7539
 4610TIP3   OH229496   1.181   3.620   2.204 -0.7436 -0.0736 -0.0102
 4610TIP3    H129497   1.152   3.532   2.182 -0.1888 -0.0281 -0.9745
 4610TIP3    H229498   1.222   3.610   2.290  1.9820 -1.3952 -1.3289
 4611TIP3   OH229499   5.679   5.254   7.339 -0.7249  0.0754 -0.0130
 4611TIP3    H129500   5.701   5.240   7.247  2.8846  2.3743  0.3088
 4611TIP3    H229501   5.652   5.168   7.371 -0.9389 -1.0282 -2.8791
 4612TIP3   OH229502   3.235   2.073   2.479  0.5207 -0.2970 -0.2717
 4612TIP3    H129503   3.255   2.160   2.512  2.2943 -1.0568  0.7986
 4612TIP3    H229504   3.172   2.088   2.408 -0.9248  1.6426  1.3006
 4613TIP3   OH229505   0.079   3.895   6.204 -0.6647 -0.0079 -0.2942
 4613TIP3    H129506   0.006   3.943   6.165 -0.5743 -0.9292 -1.6866
 4613TIP3    H229507   0.146   3.961   6.221 -1.9927  0.9365  1.5189
 4614TIP3   OH229508   4.378   0.639   7.755 -0.3851 -0.4157 -0.5000
 4614TIP3    H129509   4.317   0.694   7.705 -1.2306 -0.7396  0.1402
 4614TIP3    H229510   4.392   0.687   7.837  0.5332 -0.1646 -0.7943
 4615TIP3   OH229511   4.199   5.948   0.411  0.1941 -0.5046 -0.1086
 4615TIP3    H129512   4.195   5.934   0.316  0.5259  1.0243 -0.3641
 4615TIP3    H229513   4.283   5.911   0.437  1.5069  1.7172 -0.9299
 4616TIP3   OH229514   5.195   4.744   7.301 -0.1134  0.1466 -0.7200
 4616TIP3    H129515   5.151   4.699   7.229 -0.8659  0.0829 -0.2340
 4616TIP3    H229516   5.205   4.678   7.369  1.3098  0.0002 -1.0463
 4617TIP3   OH229517   3.421   5.632   0.290  0.2049 -0.8969  0.2243
 4617TIP3    H129518   3.329   5.643   0.315  0.2393  2.8482 -0.7448
 4617TIP3    H229519   3.419   5.565   0.221 -1.8771 -0.5607 -0.1163
 4618TIP3   OH229520   5.798   1.515   1.334 -0.2329  0.2181 -0.3602
 4618TIP3    H129521   5.872   1.465   1.299 -0.1028 -0.4027  0.7403
 4618TIP3    H229522   5.839   1.588   1.380 -0.2153 -0.6914  1.1334
 4619TIP3   OH229523   3.941   2.659   6.857 -0.1929 -0.2069 -0.1108
 4619TIP3    H129524   3.945   2.718   6.782  0.8756  0.0544  0.1426
 4619TIP3    H229525   4.021   2.607   6.851  0.4762  0.5881  1.4701
 4620TIP3   OH229526   2.165   2.735   1.912 -0.1039 -0.1913 -0.2051
 4620TIP3    H129527   2.156   2.720   2.006 -1.0996  1.2336 -0.0494
 4620TIP3    H229528   2.075   2.740   1.879  0.2266  0.2731 -1.0695
 4621TIP3   OH229529   0.566   2.701   7.693 -0.8550  0.2203  0.5811
 4621TIP3    H129530   0.599   2.615   7.721 -0.6739  0.9098  2.7192
 4621TIP3    H229531   0.642   2.746   7.659 -1.0503 -0.6110 -1.0417
 4622TIP3   OH229532   6.289   0.456   0.057  0.3929 -0.3026  0.7002
 4622TIP3    H129533   6.256   0.493  -0.024 -1.7745 -0.4920  1.4337
 4622TIP3    H229534   6.366   0.404   0.030 -0.0340 -0.0489 -1.1497
 4623TIP3   OH229535   3.517   2.511   6.387  0.1810 -0.0544 -0.4506
 4623TIP3    H129536   3.581   2.546   6.325  0.5419  2.5193  1.2214
 4623TIP3    H229537   3.434   2.549   6.359  0.4355  1.5939  0.8735
 4624TIP3   OH229538   3.363   5.161   1.164 -0.1466 -0.6921 -0.2325
 4624TIP3    H129539   3.442   5.196   1.123  0.0343 -0.0814  0.6205
 4624TIP3    H229540   3.291   5.208   1.121  0.0310 -0.2604 -0.0725
 4625TIP3   OH229541   2.445   0.890   7.528  0.1155 -0.3559 -0.2655
 4625TIP3    H129542   2.411   0.859   7.443 -0.1411  3.3378 -1.6725
 4625TIP3    H229543   2.400   0.973   7.543  1.2721 -0.1861  2.8179
 4626TIP3   OH229544   0.120   3.019   0.517  0.4280  0.1008  0.2943
 4626TIP3    H129545   0.084   2.954   0.577  1.5576  0.1466  1.0430
 4626TIP3    H229546   0.069   3.008   0.436 -0.1113 -0.9707  0.7615
 4627TIP3   OH229547   2.938   3.729   0.267  0.4478  0.1178  0.5503
 4627TIP3    H129548   2.971   3.639   0.264  2.3217  0.7755 -1.6682
 4627TIP3    H229549   2.849   3.723   0.232  0.8954 -0.7928 -0.5123
 4628TIP3   OH229550   0.926   2.713   2.175 -0.2887  0.0996  0.5715
 4628TIP3    H129551   0.903   2.803   2.151 -0.0247  0.1576  0.5226
 4628TIP3    H229552   0.844   2.665   2.170 -0.4634  0.3735  0.7591
 4629TIP3   OH229553   4.605   5.715   1.732  0.5341  0.3805  0.1781
 4629TIP3    H129554   4.674   5.779   1.713 -0.5163  1.4535 -0.1465
 4629TIP3    H229555   4.602   5.711   1.827  0.0139  1.5215  0.2327
 4630TIP3   OH229556   3.282   6.073   0.833  0.3593  0.1013 -0.3506
 4630TIP3    H129557   3.272   6.146   0.772 -0.8232  0.4882  0.2708
 4630TIP3    H229558   3.249   5.997   0.786 -1.6421  0.6027  0.1677
 4631TIP3   OH229559   4.741   0.252   0.004 -0.1069 -0.8523 -0.1430
 4631TIP3    H129560   4.788   0.183   0.050 -0.9557 -0.2760  1.6642
 4631TIP3    H229561   4.662   0.266   0.055 -1.0732 -0.1236 -1.7699
 4632TIP3   OH229562   1.991   4.618   0.893 -0.1755  0.1095 -0.6568
 4632TIP3    H129563   2.053   4.584   0.829 -0.6081 -3.1221  0.4506
 4632TIP3    H229564   2.002   4.562   0.969 -2.0395  1.6725  0.8722
 4633TIP3   OH229565   6.186   1.386   5.550  0.1811  0.6140 -0.2117
 4633TIP3    H129566   6.111   1.336   5.584  0.6461  0.6158  0.8494
 4633TIP3    H229567   6.230   1.326   5.490  0.0476  0.1650  0.1346
 4634TIP3   OH229568   1.507   3.707   1.808  0.3666 -0.1202 -0.5545
 4634TIP3    H129569   1.507   3.748   1.722 -1.3922  3.3525  0.9093
 4634TIP3    H229570   1.589   3.736   1.848  0.4237 -0.3909 -0.4702
 4635TIP3   OH229571   5.341   2.231   6.657  0.2544 -1.0342  0.4758
 4635TIP3    H129572   5.279   2.169   6.619 -1.2838  1.6658 -1.8393
 4635TIP3    H229573   5.286   2.299   6.696  1.7706  0.6597 -0.2246
 4636TIP3   OH229574   2.508   0.693   0.540 -0.1551 -0.0440  0.2375
 4636TIP3    H129575   2.524   0.765   0.601  2.7723 -0.8293  0.5595
 4636TIP3    H229576   2.495   0.616   0.596 -1.0352 -0.1731 -0.1265
 4637TIP3   OH229577   3.146   4.084   1.055 -0.2603  0.2593  0.4884
 4637TIP3    H129578   3.087   4.133   1.112 -0.0815 -0.1733  1.0600
 4637TIP3    H229579   3.200   4.032   1.115  0.7390  0.6810 -0.0123
 4638TIP3   OH229580   0.562   4.677   0.628  0.1205 -0.3176 -0.4484
 4638TIP3    H129581   0.650   4.700   0.597  0.1650 -0.1538 -0.2014
 4638TIP3    H229582   0.528   4.617   0.561  1.4912 -2.6585  0.8149
 4639TIP3   OH229583   1.008   0.155   1.411  0.2304 -0.2531  0.5302
 4639TIP3    H129584   0.968   0.241   1.426  0.4154 -0.2235  0.8607
 4639TIP3    H229585   1.032   0.156   1.318 -0.1531 -0.1127  0.4307
 4640TIP3   OH229586   4.223   1.442   0.593  0.3098 -0.0432 -0.6134
 4640TIP3    H129587   4.155   1.503   0.564 -0.3620 -0.9101 -0.9305
 4640TIP3    H229588   4.186   1.355   0.576  0.0293 -0.6405  2.3592
 4641TIP3   OH229589   0.553   4.862   2.155  0.8979  0.2556  0.1868
 4641TIP3    H129590   0.584   4.788   2.208 -0.4462 -2.0692 -2.0132
 4641TIP3    H229591   0.473   4.830   2.115 -0.0152  3.1601 -0.5210
 4642TIP3   OH229592   0.621   0.368   1.315  0.1050  0.3064  0.0417
 4642TIP3    H129593   0.635   0.459   1.340  0.6906 -0.2140  1.7234
 4642TIP3    H229594   0.528   0.352   1.332  0.2377  0.3009  0.8041
 4643TIP3   OH229595   2.521   4.666   0.208  0.3039  1.0673 -0.2655
 4643TIP3    H129596   2.512   4.630   0.119  0.9475 -0.4883  0.2578
 4643TIP3    H229597   2.434   4.698   0.229 -0.2739  0.0013 -0.8852
 4644TIP3   OH229598   6.145   5.200   0.005  0.2684 -0.2259  0.0889
 4644TIP3    H129599   6.145   5.127  -0.056 -1.1061 -0.1680 -0.0108
 4644TIP3    H229600   6.219   5.182   0.063  0.6526 -1.0857 -0.6403
 4645TIP3   OH229601   4.468   1.380   7.546  0.4920 -0.8013  0.2949
 4645TIP3    H129602   4.491   1.401   7.636 -1.1635 -0.7710  0.7368
 4645TIP3    H229603   4.446   1.287   7.548  1.5232 -1.0833 -0.3334
 4646TIP3   OH229604   4.915   5.395   0.490 -0.0378 -0.5411  0.2383
 4646TIP3    H129605   4.955   5.422   0.408 -2.0408  2.2673  0.0387
 4646TIP3    H229606   4.849   5.331   0.465  0.4758 -0.9419 -0.1094
 4647TIP3   OH229607   0.897   5.548   0.070 -0.1996 -0.3582 -0.1249
 4647TIP3    H129608   0.803   5.558   0.080 -0.2386  0.6083 -1.3231
 4647TIP3    H229609   0.933   5.579   0.153 -0.8496  1.0622 -0.3504
 4648TIP3   OH229610   5.756   1.917   1.358 -0.0743  0.0529  0.2941
 4648TIP3    H129611   5.796   1.890   1.441  1.5840  1.7712  0.1316
 4648TIP3    H229612   5.801   1.864   1.291  0.1531  0.2199  0.3150
 4649TIP3   OH229613   1.701   4.878   6.936  0.0717 -0.2492  0.3526
 4649TIP3    H129614   1.793   4.862   6.960  1.0875  2.8133 -0.9458
 4649TIP3    H229615   1.696   4.854   6.843  0.0503  1.0554 -0.0092
 4650TIP3   OH229616   6.052   5.826   1.873  0.2899  0.1540  0.5905
 4650TIP3    H129617   5.957   5.819   1.888 -0.4891  1.7877 -2.7657
 4650TIP3    H229618   6.069   5.767   1.800  1.6762  0.7679  0.4077
 4651TIP3   OH229619   5.304   2.361   0.228  0.3511  0.6071 -0.1038
 4651TIP3    H129620   5.344   2.435   0.182  4.2921  0.0101  1.9216
 4651TIP3    H229621   5.279   2.397   0.313  0.8692 -0.0534  0.3285
 4652TIP3   OH229622   2.606   2.630   1.660 -0.0110  0.7686 -0.2253
 4652TIP3    H129623   2.550   2.613   1.584  0.3971 -2.4741  0.0501
 4652TIP3    H229624   2.547   2.621   1.735  0.5152 -1.5079  0.0051
 4653TIP3   OH229625   2.806   2.514   1.787 -0.3254 -0.3581  0.3651
 4653TIP3    H129626   2.849   2.582   1.839 -2.4470 -0.3177  2.2109
 4653TIP3    H229627   2.738   2.561   1.738 -0.6647 -0.9069  0.3053
 4654TIP3   OH229628   1.521   1.777   0.029  0.8219  0.2403  0.6109
 4654TIP3    H129629   1.508   1.764   0.123 -1.4317  0.3150  0.3591
 4654TIP3    H229630   1.492   1.695  -0.011 -1.0536  1.2134 -0.1582
 4655TIP3   OH229631   2.266   2.472   2.216 -0.4571  0.1500  0.4580
 4655TIP3    H129632   2.230   2.558   2.194 -0.3258  0.3340  0.9573
 4655TIP3    H229633   2.320   2.487   2.293  2.5149  0.3231 -1.4768
 4656TIP3   OH229634   5.583   0.837   2.017 -0.0965 -0.0610  0.0814
 4656TIP3    H129635   5.592   0.833   1.922 -0.4779 -0.5034  0.0602
 4656TIP3    H229636   5.530   0.914   2.033  1.8482  1.3569  0.0860
 4657TIP3   OH229637   2.758   2.550   0.771 -0.0815  0.1686 -0.0181
 4657TIP3    H129638   2.770   2.521   0.861 -0.2109  0.7890  0.2085
 4657TIP3    H229639   2.664   2.544   0.755  0.1995 -2.6824 -1.0909
 4658TIP3   OH229640   2.891   6.295   1.219 -0.1039  0.4724  0.2733
 4658TIP3    H129641   2.895   6.388   1.196  1.1627  0.1190 -1.0777
 4658TIP3    H229642   2.964   6.282   1.279  0.7429  0.0215 -0.8452
 4659TIP3   OH229643   5.900   1.675   6.656  0.2031 -0.3005 -0.1788
 4659TIP3    H129644   5.851   1.674   6.574 -2.2192 -1.6558  1.1549
 4659TIP3    H229645   5.914   1.583   6.678  1.6443  0.0449  0.5001
 4660TIP3   OH229646   4.288   3.370   7.176  0.3098 -0.2909 -0.6433
 4660TIP3    H129647   4.338   3.440   7.219  0.3001 -0.3611 -0.5166
 4660TIP3    H229648   4.198   3.383   7.205  0.2807 -0.2540 -0.7528
 4661TIP3   OH229649   3.516   0.703   0.606 -0.0025  0.3216 -0.1650
 4661TIP3    H129650   3.482   0.622   0.567  4.6913 -2.2270  0.3689
 4661TIP3    H229651   3.505   0.690   0.700  1.4646 -0.1648 -0.0354
 4662TIP3   OH229652   2.124   3.731   1.538  0.2093  0.4263 -0.2943
 4662TIP3    H129653   2.183   3.705   1.609  0.0583  0.0226 -0.3094
 4662TIP3    H229654   2.179   3.777   1.475  0.4433  0.3330 -0.1564
 4663TIP3   OH229655   3.901   2.182   0.608 -0.2537  0.7240  0.0761
 4663TIP3    H129656   3.866   2.098   0.637  0.8614 -0.4481 -1.7094
 4663TIP3    H229657   3.916   2.232   0.688 -1.4319 -0.5688  1.1433
 4664TIP3   OH229658   5.932   4.263   1.809  0.0229 -0.1945  0.0745
 4664TIP3    H129659   5.850   4.308   1.785 -0.2504 -1.0960 -0.7575
 4664TIP3    H229660   5.995   4.293   1.744 -0.1878 -1.0686 -0.5503
 4665TIP3   OH229661   2.389   0.236   7.694 -0.4098 -0.1037 -0.0290
 4665TIP3    H129662   2.431   0.290   7.761 -0.9079  0.0583  0.1565
 4665TIP3    H229663   2.334   0.175   7.744 -1.9150  0.9623 -0.3181
 4666TIP3   OH229664   3.555   3.129   5.852 -0.0321  0.2311  0.0467
 4666TIP3    H129665   3.525   3.196   5.791 -1.0836  0.6646  1.0154
 4666TIP3    H229666   3.619   3.078   5.802  0.0971  1.3733 -0.9945
 4667TIP3   OH229667   4.051   3.422   6.027  0.5019  0.4566 -0.6611
 4667TIP3    H129668   4.047   3.332   6.061  1.6742  0.1577 -1.2395
 4667TIP3    H229669   4.108   3.468   6.088 -0.9699  1.1244  0.2487
 4668TIP3   OH229670   4.019   4.895   1.520 -0.0945  0.0559  0.1533
 4668TIP3    H129671   4.037   4.990   1.520 -1.1674  0.2806  1.2899
 4668TIP3    H229672   3.946   4.885   1.581 -0.9836 -1.3426 -1.1065
 4669TIP3   OH229673   5.365   1.722   7.631 -0.0117  0.1668 -0.5876
 4669TIP3    H129674   5.316   1.698   7.710  0.3160  0.1220 -0.3998
 4669TIP3    H229675   5.304   1.703   7.560  0.1862 -1.1176 -0.4468
 4670TIP3   OH229676   1.920   5.394   6.355  0.4163  0.2825 -0.1323
 4670TIP3    H129677   2.009   5.358   6.356  0.2096 -0.3620 -1.6598
 4670TIP3    H229678   1.899   5.404   6.262 -1.3862 -0.3171  0.1689
 4671TIP3   OH229679   1.584   0.906   1.881 -0.0257 -0.4441 -0.0067
 4671TIP3    H129680   1.597   0.938   1.970  0.1636  2.2164 -0.9073
 4671TIP3    H229681   1.489   0.907   1.869 -0.3290 -3.6185  1.0032
 4672TIP3   OH229682   4.904   2.724   7.368  0.3563  0.2602  0.2490
 4672TIP3    H129683   4.827   2.669   7.354 -0.1422  1.1142 -0.4459
 4672TIP3    H229684   4.898   2.750   7.460  0.3513 -0.4711  0.4612
 4673TIP3   OH229685   4.441   5.209   7.267  0.3659 -0.0746  0.3567
 4673TIP3    H129686   4.450   5.156   7.346  2.2979 -0.2171  0.0861
 4673TIP3    H229687   4.408   5.149   7.201  1.9018 -0.8292  0.2261
 4674TIP3   OH229688   0.532   1.688   6.125  0.1486 -0.0844  0.0581
 4674TIP3    H129689   0.488   1.655   6.047 -0.2676 -1.0535  0.6890
 4674TIP3    H229690   0.479   1.764   6.152 -0.5925 -0.6659  0.2645
 4675TIP3   OH229691   6.156   3.044   0.833 -0.1347 -0.2415  0.0714
 4675TIP3    H129692   6.083   3.037   0.894  0.3068  0.2295  0.6744
 4675TIP3    H229693   6.233   3.049   0.890  0.2843  0.1765 -0.5291
 4676TIP3   OH229694   0.037   5.645   6.976  0.4835  0.2208  0.1586
 4676TIP3    H129695   0.072   5.597   6.900  2.3797  0.8727  0.5611
 4676TIP3    H229696   0.050   5.585   7.049 -1.6680 -0.5484 -0.0223
 4677TIP3   OH229697   0.873   3.202   0.399  0.2794  0.2021  0.7687
 4677TIP3    H129698   0.939   3.201   0.329 -1.5249  1.1432 -1.0451
 4677TIP3    H229699   0.835   3.289   0.394 -0.4500  0.0130  2.4503
 4678TIP3   OH229700   1.246   2.031   7.199 -0.0708  0.5267 -1.2201
 4678TIP3    H129701   1.167   2.071   7.235 -0.6254  0.3857 -2.2404
 4678TIP3    H229702   1.316   2.093   7.219 -0.2813  0.2860  0.3919
 4679TIP3   OH229703   5.363   1.928   6.793  0.0755  0.1246 -0.4270
 4679TIP3    H129704   5.335   1.841   6.823 -0.8856  0.3327 -0.6950
 4679TIP3    H229705   5.342   1.986   6.866 -0.7360  0.3716 -0.8483
 4680TIP3   OH229706   5.311   0.311   6.819  0.4383 -0.2400  0.1246
 4680TIP3    H129707   5.291   0.373   6.889 -0.4360 -0.9180  0.4895
 4680TIP3    H229708   5.283   0.356   6.739 -1.6471 -0.7501  0.5279
 4681TIP3   OH229709   2.111   4.672   6.808  0.1228 -0.6756  0.2239
 4681TIP3    H129710   2.142   4.743   6.751 -0.3529 -1.7608 -1.4631
 4681TIP3    H229711   2.190   4.644   6.856  0.0968  1.7175  1.8606
 4682TIP3   OH229712   2.091   4.887   1.087 -0.0543  0.1057 -0.0636
 4682TIP3    H129713   2.137   4.825   1.145 -1.1288 -0.5315  0.1234
 4682TIP3    H229714   2.155   4.906   1.018  0.4767 -0.8295  0.1409
 4683TIP3   OH229715   2.912   5.628   6.797 -0.2747 -0.0220 -0.0178
 4683TIP3    H129716   2.968   5.627   6.874 -0.4671 -0.2485  0.1198
 4683TIP3    H229717   2.954   5.567   6.736 -0.4738 -0.3380  0.1587
 4684TIP3   OH229718   2.543   5.297   6.759 -0.4333 -0.2983 -0.3582
 4684TIP3    H129719   2.635   5.290   6.786 -1.1525 -1.5795  2.0299
 4684TIP3    H229720   2.511   5.207   6.760 -2.0778  0.2502  0.2498
 4685TIP3   OH229721   2.989   1.473   3.114 -0.1986 -0.2038 -0.0287
 4685TIP3    H129722   3.023   1.561   3.126  0.8622 -0.5323 -0.5535
 4685TIP3    H229723   2.950   1.474   3.026  1.1755 -0.6608 -0.6737
 4686TIP3   OH229724   0.054   2.976   7.724 -0.3962  0.6573  0.7545
 4686TIP3    H129725   0.080   3.066   7.742  0.1727  0.9416 -1.2537
 4686TIP3    H229726   0.136   2.929   7.713 -0.6918 -0.0597  1.5504
 4687TIP3   OH229727   4.772   5.725   0.898 -0.3356  0.0088 -0.2176
 4687TIP3    H129728   4.690   5.768   0.875 -0.9136 -1.4226 -0.9505
 4687TIP3    H229729   4.799   5.680   0.817  0.9787  0.1613  0.1164
 4688TIP3   OH229730   4.559   5.474   6.671  0.2927  0.3762  0.9538
 4688TIP3    H129731   4.645   5.445   6.703  0.4254  0.3100  0.5377
 4688TIP3    H229732   4.553   5.565   6.700 -0.5957 -0.3288  3.2597
 4689TIP3   OH229733   6.187   4.439   0.721 -0.1675  0.9784  0.2150
 4689TIP3    H129734   6.188   4.356   0.672  1.3387  0.4843  0.9951
 4689TIP3    H229735   6.216   4.504   0.658 -0.6044  0.7809 -0.1984
 4690TIP3   OH229736   1.734   5.195   0.374  0.3581 -0.4391  0.1391
 4690TIP3    H129737   1.686   5.135   0.318 -2.0994  0.9710  0.6081
 4690TIP3    H229738   1.745   5.274   0.322  0.6909 -0.1467  0.6371
 4691TIP3   OH229739   6.084   0.275   6.939 -0.0896  0.4603 -0.1404
 4691TIP3    H129740   6.020   0.290   6.869  0.5100 -1.2132 -1.1035
 4691TIP3    H229741   6.155   0.227   6.897  0.7876  0.3363  1.4004
 4692TIP3   OH229742   5.432   3.893   1.332 -0.3202  0.2007 -0.5340
 4692TIP3    H129743   5.418   3.799   1.318  1.7870 -0.2479  0.0680
 4692TIP3    H229744   5.396   3.934   1.253 -3.1972 -0.8751  0.0880
 4693TIP3   OH229745   5.717   0.299   6.815  0.6238 -0.2556  0.6013
 4693TIP3    H129746   5.724   0.352   6.736 -0.2919 -1.0377 -0.0434
 4693TIP3    H229747   5.772   0.223   6.798 -1.1592 -1.4393 -0.2038
 4694TIP3   OH229748   2.423   5.076   6.840 -0.7391  0.4433  0.2599
 4694TIP3    H129749   2.328   5.065   6.838 -0.7610 -0.4357  2.4701
 4694TIP3    H229750   2.458   4.987   6.842  0.0024  0.7296  1.2985
 4695TIP3   OH229751   0.538   5.288   6.674  0.5388  0.0876  0.8362
 4695TIP3    H129752   0.473   5.359   6.675  0.6082  0.1494  0.9351
 4695TIP3    H229753   0.615   5.327   6.631 -0.5848 -0.9357 -2.4406
 4696TIP3   OH229754   2.044   1.225   2.915 -0.0631 -0.0353 -0.7800
 4696TIP3    H129755   1.969   1.166   2.924 -0.8758  0.9685 -0.7591
 4696TIP3    H229756   2.117   1.168   2.892 -0.5840 -1.1775  0.2682
 4697TIP3   OH229757   2.818   2.528   1.379 -0.1955  0.3594  0.1724
 4697TIP3    H129758   2.846   2.557   1.292  0.8141  0.5252  0.5332
 4697TIP3    H229759   2.807   2.610   1.428  0.1355  0.2344  0.4575
 4698TIP3   OH229760   6.029   0.515   2.499 -0.2604  0.3357 -0.3796
 4698TIP3    H129761   6.005   0.481   2.586 -0.9065  0.4926 -0.4964
 4698TIP3    H229762   5.989   0.454   2.438  0.4421  0.0567 -0.5766
 4699TIP3   OH229763   5.239   3.581   0.850 -0.2230 -0.1687  0.4508
 4699TIP3    H129764   5.203   3.507   0.802  1.7563 -0.8789 -0.0199
 4699TIP3    H229765   5.301   3.543   0.911  1.6106  1.1025 -0.4976
 4700TIP3   OH229766   1.098   4.503   1.469  0.3835  0.0967 -0.3312
 4700TIP3    H129767   1.118   4.423   1.518 -0.9399 -1.5093 -2.2513
 4700TIP3    H229768   1.020   4.538   1.513 -0.4535 -1.0184 -0.8666
 4701TIP3   OH229769   1.429   1.602   1.654 -0.4919 -0.0469  0.2921
 4701TIP3    H129770   1.354   1.651   1.688  0.0218  0.4507  0.7140
 4701TIP3    H229771   1.488   1.668   1.619  0.3689 -0.3209  1.1784
 4702TIP3   OH229772   2.837   0.449   6.397  1.0324  0.3989  0.1117
 4702TIP3    H129773   2.931   0.441   6.378  0.6263  0.7863 -2.3268
 4702TIP3    H229774   2.825   0.540   6.423  1.2826  0.4365  0.0961
 4703TIP3   OH229775   2.265   1.495   7.099  0.3290  0.0165  0.0603
 4703TIP3    H129776   2.330   1.442   7.146 -0.4229 -2.9593 -1.9400
 4703TIP3    H229777   2.182   1.452   7.117 -0.4602  1.0359 -0.9902
 4704TIP3   OH229778   1.356   0.807   0.913  0.1310 -0.4807  0.3707
 4704TIP3    H129779   1.401   0.725   0.891  0.5016 -0.4287  0.9033
 4704TIP3    H229780   1.398   0.835   0.994 -0.3868 -0.0559  0.4912
 4705TIP3   OH229781   5.801   0.487   6.557 -0.5145  0.4727  0.3563
 4705TIP3    H129782   5.863   0.561   6.561 -0.0979  0.0705  1.9873
 4705TIP3    H229783   5.754   0.500   6.475  2.6632  0.0467 -1.7143
 4706TIP3   OH229784   3.782   0.002   5.904  0.2926  0.5193  0.5218
 4706TIP3    H129785   3.860  -0.051   5.886  0.1704  0.7571 -0.7884
 4706TIP3    H229786   3.711  -0.062   5.915 -0.1128  0.3823 -2.3059
 4707TIP3   OH229787   4.118   4.656   7.070 -0.0300  0.3132  0.4562
 4707TIP3    H129788   4.202   4.647   7.115 -0.7098  1.7554  2.1490
 4707TIP3    H229789   4.080   4.569   7.073  0.8624 -0.0811  0.8083
 4708TIP3   OH229790   0.176   2.932   6.580  0.3287 -0.2410 -0.4268
 4708TIP3    H129791   0.134   2.846   6.582  0.6211 -0.4194  3.0052
 4708TIP3    H229792   0.186   2.951   6.487 -0.5455 -3.4971 -1.3149
 4709TIP3   OH229793   0.142   4.427   6.750 -0.1652  0.1595 -0.2686
 4709TIP3    H129794   0.225   4.402   6.710  0.4072  0.4707  0.6720
 4709TIP3    H229795   0.099   4.482   6.684 -0.3379 -1.2528 -1.3736
 4710TIP3   OH229796   4.236   4.007   1.238 -0.3721  0.0975 -0.0310
 4710TIP3    H129797   4.212   4.100   1.234 -1.6275 -0.2231 -0.2275
 4710TIP3    H229798   4.284   3.999   1.320 -1.7232  0.6057  0.8425
 4711TIP3   OH229799   1.385   3.634   6.016 -0.3233 -0.3422 -0.4559
 4711TIP3    H129800   1.291   3.646   6.029 -0.4962 -1.4067 -0.5793
 4711TIP3    H229801   1.404   3.678   5.933 -1.0493 -1.4833 -1.2631
 4712TIP3   OH229802   1.276   0.625   6.260  0.2905  0.0671 -0.3299
 4712TIP3    H129803   1.206   0.624   6.325 -0.5894  1.3384 -1.2218
 4712TIP3    H229804   1.312   0.536   6.263 -0.2452 -0.1380  1.3044
 4713TIP3   OH229805   5.367   2.516   1.835 -0.0229 -0.3977 -0.3569
 4713TIP3    H129806   5.329   2.484   1.753 -2.1045  0.1411  0.3288
 4713TIP3    H229807   5.291   2.533   1.891  1.3307 -0.3622  1.5448
 4714TIP3   OH229808   3.636   1.169   7.197 -0.6958 -0.4365  0.2626
 4714TIP3    H129809   3.543   1.145   7.202 -0.4594 -1.3939  0.1146
 4714TIP3    H229810   3.661   1.147   7.107 -0.0678 -1.1425  0.6029
 4715TIP3   OH229811   1.196   0.122   5.527  0.2622  0.0828  0.2330
 4715TIP3    H129812   1.194   0.028   5.544 -1.0429 -0.3722 -2.0389
 4715TIP3    H229813   1.271   0.134   5.468  1.4861  0.7987  1.8368
 4716TIP3   OH229814   1.761   0.024   0.572  0.0389  0.2536 -0.4218
 4716TIP3    H129815   1.748  -0.014   0.485  2.3675 -0.0182 -0.7066
 4716TIP3    H229816   1.794   0.112   0.555  0.3951  0.2416  0.1831
 4717TIP3   OH229817   2.262   4.730   0.267 -0.6947  0.4917  0.4893
 4717TIP3    H129818   2.240   4.796   0.200 -0.5023  0.3624  0.2981
 4717TIP3    H229819   2.194   4.741   0.334 -1.4948 -0.0668 -0.2108
 4718TIP3   OH229820   3.900   2.127   1.726  0.2853 -0.3373 -0.1477
 4718TIP3    H129821   3.884   2.038   1.695 -3.0023 -0.8912  2.5320
 4718TIP3    H229822   3.835   2.181   1.681  0.6447  0.2573  0.0300
 4719TIP3   OH229823   3.114   5.599   1.421 -0.4549 -0.7686 -0.1345
 4719TIP3    H129824   3.133   5.614   1.328 -0.8653  1.6167  0.0925
 4719TIP3    H229825   3.199   5.581   1.460  0.0812  0.6379 -0.6064
 4720TIP3   OH229826   1.272   4.989   7.532  0.4996  0.0901 -0.1546
 4720TIP3    H129827   1.311   5.062   7.482  0.9556 -1.1907 -1.7660
 4720TIP3    H229828   1.206   4.953   7.473 -1.9908  1.1188  1.8653
 4721TIP3   OH229829   2.771   4.373   1.145 -0.0649 -0.3608  0.2179
 4721TIP3    H129830   2.862   4.366   1.173  0.1219  1.4447  0.2087
 4721TIP3    H229831   2.776   4.393   1.052 -0.4805 -0.5540  0.1518
 4722TIP3   OH229832   0.351   5.776   7.485 -0.2224  0.3586  0.1343
 4722TIP3    H129833   0.394   5.697   7.453 -0.5828 -0.4328  1.5348
 4722TIP3    H229834   0.269   5.745   7.523 -0.9779  1.5681 -0.4221
 4723TIP3   OH229835   4.541   4.330   5.893 -0.3069  0.4377  0.8656
 4723TIP3    H129836   4.520   4.408   5.944  1.9547  0.8204  1.3342
 4723TIP3    H229837   4.600   4.361   5.824  0.5455 -0.8080  0.9936
 4724TIP3   OH229838   0.298   4.290   1.459  0.2482  0.3015  0.0322
 4724TIP3    H129839   0.260   4.377   1.464 -1.7014 -0.5060  0.4853
 4724TIP3    H229840   0.350   4.281   1.539  0.2707  0.9611  0.0924
 4725TIP3   OH229841   1.436   5.266   0.750  0.0122 -0.3710  0.2929
 4725TIP3    H129842   1.412   5.174   0.760  0.9534 -0.5212  1.2341
 4725TIP3    H229843   1.507   5.265   0.685 -0.3903 -0.2356 -0.1574
 4726TIP3   OH229844   2.092   3.192   7.709  0.2065  0.0213 -0.0928
 4726TIP3    H129845   2.130   3.280   7.717 -1.4349  0.8026 -0.4894
 4726TIP3    H229846   2.122   3.146   7.787  2.9211  0.1705 -0.9379
 4727TIP3   OH229847   6.007   1.925   7.745 -0.0585  0.6151  0.0545
 4727TIP3    H129848   6.069   1.875   7.798  0.4681 -0.6320 -1.6395
 4727TIP3    H229849   6.058   2.001   7.715  0.3884  0.0863 -0.5620
 4728TIP3   OH229850   4.553   4.493   6.603  0.5321 -0.3006  0.3658
 4728TIP3    H129851   4.581   4.498   6.695  2.1741  0.7319 -0.1640
 4728TIP3    H229852   4.630   4.518   6.553 -1.2505  2.5762 -1.1901
 4729TIP3   OH229853   0.344   2.232   2.070 -0.3854 -0.0597  0.2730
 4729TIP3    H129854   0.434   2.206   2.091 -0.3795 -0.0721  0.2325
 4729TIP3    H229855   0.311   2.161   2.015 -0.4290 -0.0681  0.3099
 4730TIP3   OH229856   4.203   2.582   0.069 -0.1344 -0.4726  0.8163
 4730TIP3    H129857   4.226   2.490   0.055  0.2270 -0.3220  0.4043
 4730TIP3    H229858   4.202   2.620  -0.018  0.0584 -0.0024  1.0157
 4731TIP3   OH229859   2.856   4.929   1.341 -0.0055 -0.2597 -0.1428
 4731TIP3    H129860   2.820   4.855   1.390  1.3713  0.1365  1.5913
 4731TIP3    H229861   2.860   5.000   1.405  2.7940  0.0125 -0.4772
 4732TIP3   OH229862   5.367   5.982   7.612  0.3260  0.1981  0.1210
 4732TIP3    H129863   5.323   5.909   7.655  1.2513 -0.7950 -0.5828
 4732TIP3    H229864   5.447   5.994   7.662  1.3491 -0.8845 -1.2005
 4733TIP3   OH229865   4.835   0.663   7.130 -0.1076  0.6718  0.4690
 4733TIP3    H129866   4.824   0.634   7.039 -0.9475 -0.6077  0.9432
 4733TIP3    H229867   4.804   0.589   7.182  0.8817  1.1801  1.8164
 4734TIP3   OH229868   2.803   2.267   0.441  0.4659  0.7985 -0.3550
 4734TIP3    H129869   2.857   2.339   0.410  0.0316  0.3744 -2.1947
 4734TIP3    H229870   2.718   2.307   0.459  0.8139  1.1078  0.7153
 4735TIP3   OH229871   0.386   0.462   7.175 -0.2474  0.3391 -0.3519
 4735TIP3    H129872   0.416   0.384   7.223 -0.1614  0.6249  0.0685
 4735TIP3    H229873   0.291   0.457   7.177 -0.3126  1.2921  1.4832
 4736TIP3   OH229874   3.807   5.122   7.735  0.3134 -0.2757  0.4638
 4736TIP3    H129875   3.821   5.086   7.823  0.5035 -0.9173  0.1814
 4736TIP3    H229876   3.867   5.197   7.730 -1.1353  1.0132  1.5791
 4737TIP3   OH229877   1.333   4.491   6.939  0.2360 -0.3182  0.3172
 4737TIP3    H129878   1.384   4.482   6.859  0.9095 -1.8512  0.8800
 4737TIP3    H229879   1.348   4.581   6.967  0.5648  0.0158 -0.8884
 4738TIP3   OH229880   0.612   5.517   6.396 -0.2834 -0.6281  0.0971
 4738TIP3    H129881   0.582   5.444   6.343  2.2914 -0.0334 -2.4244
 4738TIP3    H229882   0.561   5.592   6.365  0.5546 -0.4617 -0.9159
 4739TIP3   OH229883   4.215   5.462   6.386  0.3403  0.2559  0.4413
 4739TIP3    H129884   4.213   5.381   6.437 -1.9936  0.3136  0.5625
 4739TIP3    H229885   4.295   5.456   6.334 -0.3571 -2.7320 -0.4871
 4740TIP3   OH229886   0.952   0.435   6.172  0.0766  0.4575 -0.4231
 4740TIP3    H129887   0.999   0.462   6.251  0.9037  1.3118 -1.1970
 4740TIP3    H229888   0.897   0.362   6.202  0.7173  0.4558  0.8393
 4741TIP3   OH229889   0.519   6.102   1.209 -0.3194 -0.5548 -0.1278
 4741TIP3    H129890   0.613   6.107   1.222 -0.4631  0.7374  0.6008
 4741TIP3    H229891   0.509   6.065   1.121  0.9482  1.6500 -1.2996
 4742TIP3   OH229892   5.441   0.659   0.462 -0.5238 -0.1123 -0.5943
 4742TIP3    H129893   5.414   0.664   0.370  0.8246  1.0701 -0.9536
 4742TIP3    H229894   5.407   0.739   0.502  0.8779  0.5367 -0.6469
 4743TIP3   OH229895   2.685   4.608   6.704 -0.0888 -1.0010  0.4004
 4743TIP3    H129896   2.686   4.543   6.775  1.4526 -1.3248  0.1124
 4743TIP3    H229897   2.675   4.556   6.625  1.9533 -0.9954  0.1023
 4744TIP3   OH229898   4.529   5.860   0.078 -0.2355 -0.3655 -0.3001
 4744TIP3    H129899   4.478   5.909   0.014  0.7483  0.0221 -0.8140
 4744TIP3    H229900   4.517   5.907   0.160 -1.3320 -0.7429 -0.2262
 4745TIP3   OH229901   3.767   4.538   7.447  0.2573 -0.0358  0.1823
 4745TIP3    H129902   3.724   4.621   7.468  1.0458  0.4337 -0.0401
 4745TIP3    H229903   3.694   4.476   7.436 -0.3287  0.5757  0.5326
 4746TIP3   OH229904   1.852   1.241   7.193  0.0760  0.0706  0.6542
 4746TIP3    H129905   1.923   1.222   7.255  0.9748  1.4655  0.1129
 4746TIP3    H229906   1.801   1.310   7.236 -1.5551 -1.5388  1.4406
 4747TIP3   OH229907   3.111   5.849   6.067  0.1810 -0.4480 -0.1736
 4747TIP3    H129908   3.159   5.818   6.144  1.4491 -0.4387 -0.9317
 4747TIP3    H229909   3.082   5.937   6.090  1.4354 -0.0427 -0.0667
 4748TIP3   OH229910   3.279   3.939   1.520  0.3492 -0.5324 -0.5428
 4748TIP3    H129911   3.284   4.034   1.523  1.8617 -0.5588 -1.4143
 4748TIP3    H229912   3.259   3.918   1.429 -0.0009 -1.0467 -0.3520
 4749TIP3   OH229913   2.161   5.772   1.571  0.2888 -0.2459  0.4580
 4749TIP3    H129914   2.154   5.804   1.660 -1.1929 -1.2367  0.7497
 4749TIP3    H229915   2.193   5.682   1.580  1.9521  0.2531 -0.1595
 4750TIP3   OH229916   3.811   2.060   7.609 -0.4423 -0.7271 -0.1511
 4750TIP3    H129917   3.861   2.104   7.540 -1.5995 -1.2998 -1.4106
 4750TIP3    H229918   3.876   2.036   7.675  0.7927 -0.6372 -1.2991
 4751TIP3   OH229919   0.662   1.574   1.210 -0.1435  0.4078 -0.1574
 4751TIP3    H129920   0.717   1.531   1.275 -1.0946 -0.6193 -0.0095
 4751TIP3    H229921   0.720   1.639   1.169  0.5610  0.8621  1.4762
 4752TIP3   OH229922   3.090   1.580   7.687  0.2697  0.1757  0.7420
 4752TIP3    H129923   3.035   1.503   7.698  0.8262 -0.4113 -0.3610
 4752TIP3    H229924   3.057   1.622   7.607 -1.1338  2.0755  2.2305
 4753TIP3   OH229925   2.533   4.496   0.451  0.1845 -0.1326 -0.0233
 4753TIP3    H129926   2.499   4.570   0.400 -1.2976 -1.1020 -0.5339
 4753TIP3    H229927   2.538   4.425   0.387  0.0644 -0.8807  0.7951
 4754TIP3   OH229928   0.240   6.060   7.376 -0.5129 -0.1147 -0.4141
 4754TIP3    H129929   0.310   5.995   7.383 -0.2931  0.0908 -0.6862
 4754TIP3    H229930   0.173   6.017   7.323 -1.9296 -1.4546  2.2332
 4755TIP3   OH229931   1.044   5.218   1.469  0.2010 -0.4800  0.3058
 4755TIP3    H129932   1.052   5.151   1.401 -0.4271  0.5344 -0.7846
 4755TIP3    H229933   1.100   5.185   1.540  1.8632 -0.9738 -1.1458
 4756TIP3   OH229934   3.882   6.083   0.100 -0.6264 -0.2035 -0.1034
 4756TIP3    H129935   3.898   6.064   0.192 -1.9892  1.2124  0.4514
 4756TIP3    H229936   3.788   6.095   0.093 -0.4511  0.5853 -1.5056
 4757TIP3   OH229937   5.721   1.368   6.427  0.3375  0.3876 -0.3453
 4757TIP3    H129938   5.747   1.310   6.355  0.2366  1.4019 -1.2243
 4757TIP3    H229939   5.639   1.330   6.459  0.9366 -0.6821 -0.0511
 4758TIP3   OH229940   0.175   0.706   6.972  0.0110  0.1739  0.4617
 4758TIP3    H129941   0.080   0.720   6.980  0.1551  0.7931  1.2903
 4758TIP3    H229942   0.212   0.758   7.044  0.9647 -0.2306  0.2680
 4759TIP3   OH229943   4.836   1.404   7.482 -0.4083  0.0329 -0.1654
 4759TIP3    H129944   4.917   1.367   7.517  1.2478  0.4158 -3.2761
 4759TIP3    H229945   4.789   1.328   7.447 -0.3578  0.0859 -0.3437
 4760TIP3   OH229946   3.594   5.209   0.787  0.0206 -0.2237  0.3771
 4760TIP3    H129947   3.635   5.123   0.784  0.2953 -0.0852 -1.2424
 4760TIP3    H229948   3.500   5.192   0.791  0.1179 -0.5621  1.6591
 4761TIP3   OH229949   6.210   6.159   6.515  0.2923  0.0702 -0.2392
 4761TIP3    H129950   6.248   6.149   6.428  1.0832  0.7370  0.0141
 4761TIP3    H229951   6.285   6.159   6.575 -0.2281 -0.2475  0.4378
 4762TIP3   OH229952   3.895   0.233   7.462 -0.7017  0.0087 -0.8269
 4762TIP3    H129953   3.830   0.282   7.411  0.9900  1.4834 -1.6849
 4762TIP3    H229954   3.961   0.208   7.398 -0.1613 -1.0292  0.1097
 4763TIP3   OH229955   5.828   3.204   7.386  0.4024  0.2938 -0.1154
 4763TIP3    H129956   5.913   3.248   7.391 -0.2310  1.6285 -0.5615
 4763TIP3    H229957   5.782   3.249   7.315 -1.1807  0.4990  0.9836
 4764TIP3   OH229958   6.099   0.120   0.063 -0.3356  0.2116 -0.4522
 4764TIP3    H129959   6.155   0.063   0.115 -1.6666 -2.5715 -1.8453
 4764TIP3    H229960   6.058   0.178   0.127 -0.7344 -2.0018  1.4425
 4765TIP3   OH229961   2.293   6.031   6.777 -0.7674  0.2434  0.0226
 4765TIP3    H129962   2.305   6.029   6.682  1.4875  0.8465  0.2268
 4765TIP3    H229963   2.270   6.122   6.796  1.3047  0.7775  0.2274
 4766TIP3   OH229964   2.867   5.251   7.675  0.1297  0.0932 -0.0799
 4766TIP3    H129965   2.795   5.312   7.686  0.1544  0.1511 -0.2382
 4766TIP3    H229966   2.826   5.167   7.658  0.0806 -0.0785  0.8326
 4767TIP3   OH229967   0.611   3.082   1.490  0.5854 -0.3255 -0.0471
 4767TIP3    H129968   0.602   3.113   1.400 -0.8031  1.0320  0.5209
 4767TIP3    H229969   0.579   3.155   1.544  0.6927 -1.3920  1.5191
 4768TIP3   OH229970   4.167   3.259   0.044 -0.3745 -0.7535  0.0685
 4768TIP3    H129971   4.171   3.342   0.090 -0.3865  0.0052 -1.2546
 4768TIP3    H229972   4.082   3.221   0.068 -0.8596  0.1476 -0.1781
 4769TIP3   OH229973   6.161   1.361   0.323 -0.0088  0.4951  0.3379
 4769TIP3    H129974   6.095   1.295   0.305 -1.1786  1.0923  2.1072
 4769TIP3    H229975   6.218   1.321   0.389  1.1399  0.1637 -0.8196
 4770TIP3   OH229976   3.838   0.752   5.716  0.5628 -0.2662  0.3956
 4770TIP3    H129977   3.836   0.661   5.746  0.2388  0.3667  2.4503
 4770TIP3    H229978   3.929   0.779   5.730  0.8186 -0.4248 -0.8225
 4771TIP3   OH229979   5.090   4.509   6.437  0.1753 -0.4608 -0.5065
 4771TIP3    H129980   5.075   4.592   6.481 -0.7365 -0.5442 -0.6361
 4771TIP3    H229981   5.048   4.444   6.494  0.6290 -0.7940 -0.5510
 4772TIP3   OH229982   3.391   3.745   7.026  0.3168  0.3890  0.5257
 4772TIP3    H129983   3.408   3.665   6.977  0.5352  0.8894 -0.2323
 4772TIP3    H229984   3.420   3.815   6.968 -1.2662  1.1091  0.5481
 4773TIP3   OH229985   2.113   1.443   1.129  0.3455 -0.4266 -0.2055
 4773TIP3    H129986   2.165   1.364   1.144 -1.3952 -1.4299  0.9830
 4773TIP3    H229987   2.176   1.515   1.130  1.6899 -1.5668  1.1961
 4774TIP3   OH229988   2.786   2.831   1.254 -0.1244  0.3011 -0.1066
 4774TIP3    H129989   2.864   2.882   1.233 -0.1247  0.4692  0.2940
 4774TIP3    H229990   2.793   2.812   1.347  0.6841 -1.8552 -0.5584
 4775TIP3   OH229991   3.093   3.586   7.275  0.8071 -0.2752 -0.6212
 4775TIP3    H129992   3.077   3.548   7.189  0.0926 -0.4156 -0.4337
 4775TIP3    H229993   3.067   3.517   7.336  1.1283 -0.1078 -0.2906
 4776TIP3   OH229994   0.575   5.858   7.626 -0.6824 -0.2979 -0.2723
 4776TIP3    H129995   0.544   5.941   7.662  0.3046 -0.1082  0.1907
 4776TIP3    H229996   0.505   5.828   7.569 -1.4008  0.4437  0.2049
 4777TIP3   OH229997   0.104   6.170   0.529  0.3059  0.0053 -0.3513
 4777TIP3    H129998   0.179   6.116   0.504 -0.1886 -1.3894  1.0180
 4777TIP3    H229999   0.050   6.113   0.584  0.0535  2.0547  1.6844
 4778TIP3   OH230000   3.113   5.260   7.012 -0.4986 -0.3834  0.4110
 4778TIP3    H130001   3.026   5.246   6.974 -1.7578  0.5726  2.7473
 4778TIP3    H230002   3.154   5.174   7.010 -0.4482 -0.4221 -2.9514
 4779TIP3   OH230003   5.004   0.580   7.652  0.2825 -0.3976  0.5341
 4779TIP3    H130004   5.088   0.534   7.646  0.8299  0.6038  0.4050
 4779TIP3    H230005   5.004   0.639   7.578 -0.9699 -1.0617 -0.0215
 4780TIP3   OH230006   6.030   1.413   1.683 -0.6681  0.3423  0.4026
 4780TIP3    H130007   6.055   1.493   1.729 -0.1859  0.2505  0.3100
 4780TIP3    H230008   6.089   1.410   1.607 -0.1096 -0.5259  0.8508
 4781TIP3   OH230009   0.007   1.578   6.131  0.2668 -0.0571  1.2721
 4781TIP3    H130010   0.019   1.530   6.050  1.5433 -0.0958  1.4540
 4781TIP3    H230011  -0.077   1.622   6.122  0.0877 -0.6063  0.2184
 4782TIP3   OH230012   4.318   0.086   0.053  0.1469  1.1312 -0.2249
 4782TIP3    H130013   4.277   0.106  -0.031 -1.0991  1.7563  0.5010
 4782TIP3    H230014   4.308  -0.008   0.064 -1.1576  1.2790 -0.0485
 4783TIP3   OH230015   5.792   5.219   1.373  0.5584 -0.3932  0.5454
 4783TIP3    H130016   5.854   5.163   1.327 -1.9672 -2.9136 -0.0714
 4783TIP3    H230017   5.743   5.263   1.303  0.4084  0.1696  0.9949
 4784TIP3   OH230018   5.229   1.691   1.751  0.1781 -0.1531  0.3861
 4784TIP3    H130019   5.277   1.768   1.720 -1.6854  0.3008 -1.6502
 4784TIP3    H230020   5.294   1.640   1.799  3.0313 -0.1119 -3.0105
 4785TIP3   OH230021   3.462   2.476   6.891  0.0866  0.2411 -0.0003
 4785TIP3    H130022   3.555   2.495   6.882  0.5218 -1.4429  0.6043
 4785TIP3    H230023   3.458   2.403   6.953 -1.6895  0.7589  0.5639
 4786TIP3   OH230024   5.862   0.651   7.392  0.8132  0.6542 -0.0648
 4786TIP3    H130025   5.863   0.560   7.419 -2.0409  0.0492 -1.5689
 4786TIP3    H230026   5.831   0.649   7.301 -0.9181  3.1663  0.3460
 4787TIP3   OH230027   5.193   3.407   2.275 -0.0486  0.0546 -0.5277
 4787TIP3    H130028   5.144   3.380   2.198  2.2279 -0.6969 -1.8356
 4787TIP3    H230029   5.230   3.325   2.310 -0.7387  0.4309  1.1667
 4788TIP3   OH230030   3.608   1.030   6.707 -0.1371  0.1734 -0.2745
 4788TIP3    H130031   3.582   1.095   6.773  1.2903 -2.5538  3.3124
 4788TIP3    H230032   3.704   1.031   6.710 -0.0711 -2.2744  0.2072
 4789TIP3   OH230033   0.943   3.209   0.907  0.0597 -0.0581  0.6248
 4789TIP3    H130034   0.964   3.129   0.860  0.3359 -0.1479  0.8989
 4789TIP3    H230035   0.964   3.279   0.845 -1.8860 -0.2329 -0.2833
 4790TIP3   OH230036   3.178   0.960   5.822  0.3617  0.0315 -0.1616
 4790TIP3    H130037   3.225   0.990   5.744  0.5991  0.7005  0.2392
 4790TIP3    H230038   3.181   1.033   5.883  2.0030 -1.1927  1.3201
 4791TIP3   OH230039   5.058   5.575   6.281  0.2687  0.2265  0.7221
 4791TIP3    H130040   5.058   5.660   6.325 -1.8907  0.2151  0.8705
 4791TIP3    H230041   4.969   5.567   6.246  0.1178 -2.3816  1.5241
 4792TIP3   OH230042   2.074   3.176   0.575  0.0433  0.4158 -0.2231
 4792TIP3    H130043   2.082   3.083   0.557  2.0703  1.0875 -3.5771
 4792TIP3    H230044   1.997   3.204   0.525  0.9252  0.9304 -1.3258
 4793TIP3   OH230045   0.330   3.931   6.467  0.3923 -0.0112  0.4274
 4793TIP3    H130046   0.267   3.983   6.518  0.1071  0.0245  0.0405
 4793TIP3    H230047   0.327   3.969   6.379  1.4811  0.4479  0.5738
 4794TIP3   OH230048   3.091   5.222   6.594 -0.4029 -0.0494 -0.1391
 4794TIP3    H130049   3.156   5.278   6.637 -1.2280  1.2231 -0.4795
 4794TIP3    H230050   3.038   5.283   6.542 -1.6690 -1.0889 -0.1126
 4795TIP3   OH230051   2.385   3.841   1.565 -1.0552 -0.1174 -0.0489
 4795TIP3    H130052   2.367   3.813   1.655  1.4342  0.3478  0.6666
 4795TIP3    H230053   2.406   3.934   1.572 -0.3973 -0.1752 -1.0145
 4796TIP3   OH230054   4.414   1.349   7.281 -0.5677 -0.1664 -0.0228
 4796TIP3    H130055   4.386   1.434   7.247  0.9977  1.1562  1.8172
 4796TIP3    H230056   4.435   1.366   7.373  1.1718 -2.2315  0.0165
 4797TIP3   OH230057   0.914   6.105   7.186 -0.2379  0.2128 -0.1212
 4797TIP3    H130058   0.979   6.071   7.124  0.5905  1.3935  0.0540
 4797TIP3    H230059   0.950   6.189   7.213 -1.7424  0.7832  0.1785
 4798TIP3   OH230060   0.661   0.629   7.742 -0.1981  0.0019 -0.2740
 4798TIP3    H130061   0.676   0.656   7.652 -1.3972 -0.6087 -0.6701
 4798TIP3    H230062   0.594   0.561   7.737  0.2600 -0.5868  1.0115
 4799TIP3   OH230063   0.028   0.219   2.092 -0.0185 -0.3797  0.1192
 4799TIP3    H130064   0.015   0.222   1.997  0.4445 -0.3324  0.0542
 4799TIP3    H230065   0.049   0.309   2.117  2.2344 -0.7774 -0.0994
 4800TIP3   OH230066   0.846   2.520   1.233 -0.3756 -0.7676 -0.1394
 4800TIP3    H130067   0.826   2.447   1.291 -0.1736 -2.1296 -1.6920
 4800TIP3    H230068   0.860   2.595   1.291 -2.7964 -1.4108  1.3791
 4801TIP3   OH230069   0.283   1.187   0.289  0.3331 -0.5199  0.3738
 4801TIP3    H130070   0.339   1.161   0.216 -0.2994  0.3920 -0.4597
 4801TIP3    H230071   0.233   1.108   0.310 -0.0383 -0.5872 -0.7054
 4802TIP3   OH230072   5.429   4.034   1.610  0.6814 -0.2652  0.2513
 4802TIP3    H130073   5.420   3.947   1.648 -0.4131 -0.0304  0.5618
 4802TIP3    H230074   5.451   4.018   1.518 -1.5247 -0.9388 -0.2231
 4803TIP3   OH230075   1.203   0.514   2.338  0.1508  0.5138  0.4013
 4803TIP3    H130076   1.293   0.498   2.311  0.3397  2.2903 -0.1806
 4803TIP3    H230077   1.198   0.482   2.428  0.4722 -2.4058 -0.5091
 4804TIP3   OH230078   1.657   3.841   6.873  0.2322 -0.0670 -0.1445
 4804TIP3    H130079   1.675   3.918   6.819 -0.4094  0.5662  0.5370
 4804TIP3    H230080   1.565   3.822   6.858  0.0775  0.0490  0.6537
 4805TIP3   OH230081   1.961   5.277   1.525 -0.1448 -0.1017 -0.6278
 4805TIP3    H130082   2.007   5.344   1.474 -0.2968  0.1376 -0.4497
 4805TIP3    H230083   1.973   5.196   1.474  1.1856 -0.2176 -0.1749
 4806TIP3   OH230084   0.735   2.175   1.461 -0.5778  1.0819 -0.0695
 4806TIP3    H130085   0.817   2.214   1.429 -0.9915  0.6098 -1.8001
 4806TIP3    H230086   0.728   2.205   1.551  2.6082 -0.5925  0.8870
 4807TIP3   OH230087   2.840   5.228   7.065 -0.6282  0.1389 -0.3954
 4807TIP3    H130088   2.833   5.136   7.091 -2.8764  0.8935  2.1358
 4807TIP3    H230089   2.886   5.269   7.138 -0.2903  1.1570 -1.1706
 4808TIP3   OH230090   2.144   0.242   7.454 -0.9761 -0.2076 -0.4734
 4808TIP3    H130091   2.217   0.189   7.488 -1.9733 -1.1852  0.2260
 4808TIP3    H230092   2.070   0.217   7.508 -1.5968  1.6219 -0.4184
 4809TIP3   OH230093   2.936   0.252   1.532  0.0872 -0.1060  0.2030
 4809TIP3    H130094   2.961   0.318   1.468  0.0038  1.3918  1.6459
 4809TIP3    H230095   3.006   0.253   1.597  0.3452 -1.8400 -0.0019
 4810TIP3   OH230096   6.290   5.255   2.251 -0.1804  0.3861  0.4811
 4810TIP3    H130097   6.265   5.259   2.343 -1.2434 -1.2070  0.3133
 4810TIP3    H230098   6.355   5.185   2.246 -1.8406 -1.1968 -0.2503
 4811TIP3   OH230099   5.191   3.220   0.740 -0.9108  0.9172 -0.7390
 4811TIP3    H130100   5.250   3.152   0.708 -1.1545  0.4760 -0.2678
 4811TIP3    H230101   5.182   3.202   0.834 -1.5817  1.1278 -0.7567
 4812TIP3   OH230102   2.422   3.023   0.581  0.4296 -0.2956  0.0656
 4812TIP3    H130103   2.515   3.045   0.580  0.2756  0.5456  1.4387
 4812TIP3    H230104   2.410   2.967   0.504  1.2937  2.6380 -2.4022
 4813TIP3   OH230105   3.373   2.761   1.365 -0.1857 -0.1615 -0.4102
 4813TIP3    H130106   3.376   2.667   1.351  0.2457 -0.0489 -1.1925
 4813TIP3    H230107   3.465   2.786   1.376 -0.3160  0.1359 -0.0004
 4814TIP3   OH230108   5.618   3.007   6.325  0.6196 -0.5471  0.6657
 4814TIP3    H130109   5.657   2.921   6.312 -0.3284 -1.0399  0.9841
 4814TIP3    H230110   5.525   2.995   6.302  0.6823  0.6552 -0.3789
 4815TIP3   OH230111   2.432   5.533   6.893  0.1738 -0.3418  0.1335
 4815TIP3    H130112   2.485   5.482   6.953 -0.5586 -1.5123 -0.1588
 4815TIP3    H230113   2.431   5.481   6.812 -2.0015 -0.8021  0.3677
 4816TIP3   OH230114   2.027   2.707   7.436  0.1635 -0.2968 -0.0735
 4816TIP3    H130115   2.006   2.797   7.412  1.6961  0.0391 -0.3137
 4816TIP3    H230116   2.006   2.656   7.359  1.8380  0.2820 -0.9651
 4817TIP3   OH230117   4.939   2.881   0.188  0.0138 -0.5480 -0.3673
 4817TIP3    H130118   4.997   2.866   0.113 -0.0805 -0.9571 -0.3591
 4817TIP3    H230119   4.905   2.969   0.175  1.7311  0.2690  0.3484
 4818TIP3   OH230120   1.920   0.462   0.254 -0.2606  0.0683  0.4634
 4818TIP3    H130121   1.918   0.404   0.178  0.9679 -0.1871  0.6088
 4818TIP3    H230122   2.009   0.497   0.255  0.4651 -1.6383  3.0383
 4819TIP3   OH230123   5.737   5.307   6.774  0.7953  0.1913  0.1203
 4819TIP3    H130124   5.672   5.346   6.832  1.0700 -0.7009  1.0574
 4819TIP3    H230125   5.819   5.351   6.798  0.7736  0.3622 -0.1210
 4820TIP3   OH230126   0.672   2.672   6.521  0.4689  1.0149  0.0906
 4820TIP3    H130127   0.758   2.676   6.479  0.8923  1.3557  0.9737
 4820TIP3    H230128   0.612   2.649   6.450  1.1615  1.6386 -0.7147
 4821TIP3   OH230129   4.435   1.071   7.287 -0.0100 -0.1376 -0.0461
 4821TIP3    H130130   4.431   1.167   7.285 -2.8890 -0.2029 -2.0569
 4821TIP3    H230131   4.517   1.050   7.243  0.0660  1.3812 -0.6925
 4822TIP3   OH230132   5.141   5.056   0.271  0.6451  0.4353 -0.3341
 4822TIP3    H130133   5.226   5.073   0.312 -0.6912  2.2128  1.9536
 4822TIP3    H230134   5.082   5.041   0.345 -1.3521  0.8822 -1.7623
 4823TIP3   OH230135   4.884   0.915   6.505 -0.1396  0.0680  0.3622
 4823TIP3    H130136   4.877   0.856   6.430  2.1416  1.0750 -0.7281
 4823TIP3    H230137   4.929   0.863   6.572 -1.7135 -0.6620  0.9057
 4824TIP3   OH230138   1.652   4.637   0.659 -0.1920 -0.1595 -0.0613
 4824TIP3    H130139   1.640   4.722   0.616 -0.1736 -0.7777 -1.3329
 4824TIP3    H230140   1.653   4.574   0.587 -0.2122 -1.2439  0.8681
 4825TIP3   OH230141   0.555   6.160   1.817  0.6954 -0.3246 -0.1814
 4825TIP3    H130142   0.495   6.105   1.867 -1.0670  0.4481 -1.3658
 4825TIP3    H230143   0.642   6.132   1.846 -0.2004 -0.4920  2.6576
 4826TIP3   OH230144   3.490   3.790   1.613 -0.3406 -0.0445 -0.4184
 4826TIP3    H130145   3.420   3.855   1.604 -1.3591 -0.9832  0.4221
 4826TIP3    H230146   3.494   3.747   1.527 -2.4169 -1.5166  0.1287
 4827TIP3   OH230147   4.278   0.962   0.928 -0.2024 -0.0318  0.4339
 4827TIP3    H130148   4.300   0.875   0.958  1.2367  0.5311  1.0828
 4827TIP3    H230149   4.288   0.959   0.833 -0.5795 -0.6749  0.4142
 4828TIP3   OH230150   2.249   3.031   6.472  0.3750  0.2578  0.3959
 4828TIP3    H130151   2.244   3.102   6.408  0.9970  0.1007  0.1760
 4828TIP3    H230152   2.220   2.954   6.424  0.3642  0.2325  0.4434
 4829TIP3   OH230153   2.983   0.455   1.340 -0.6709  0.1362  0.1415
 4829TIP3    H130154   3.049   0.516   1.307 -0.0607 -1.1652 -1.1851
 4829TIP3    H230155   2.902   0.506   1.341  0.1379  1.4515  0.7609
 4830TIP3   OH230156   2.111   2.478   7.594 -0.2032 -0.7996  0.1771
 4830TIP3    H130157   2.022   2.495   7.563  0.7684  1.4446 -1.6962
 4830TIP3    H230158   2.156   2.442   7.517  0.8303 -0.6548  0.7020
 4831TIP3   OH230159   0.326   0.536   0.215 -0.1435 -0.2334  0.1395
 4831TIP3    H130160   0.351   0.612   0.268  1.5330  0.5918 -1.6717
 4831TIP3    H230161   0.273   0.573   0.144 -0.1059 -0.8918 -0.2376
 4832TIP3   OH230162   0.751   1.374   1.430 -0.1456 -0.6093  0.9970
 4832TIP3    H130163   0.668   1.369   1.477 -0.3309  2.1971  1.1253
 4832TIP3    H230164   0.816   1.390   1.499 -0.0811  1.1063  0.5679
 4833TIP3   OH230165   3.406   4.607   7.575  0.4026  0.3854 -0.0518
 4833TIP3    H130166   3.492   4.623   7.537  0.1120 -1.7909 -1.8655
 4833TIP3    H230167   3.420   4.612   7.670  3.1475 -2.1955 -0.1779
 4834TIP3   OH230168   3.752   2.715   2.178  0.1715  0.7557 -0.1552
 4834TIP3    H130169   3.689   2.646   2.156 -0.7320  1.3976  0.2989
 4834TIP3    H230170   3.806   2.677   2.248 -1.8155  1.2312  1.7584
 4835TIP3   OH230171   3.156   4.513   1.008  0.1995 -0.3838 -0.0733
 4835TIP3    H130172   3.201   4.431   1.026 -1.0406 -1.0251  0.1769
 4835TIP3    H230173   3.066   4.488   0.986 -0.1673  0.8917 -0.1465
 4836TIP3   OH230174   3.236   1.102   2.029 -0.0694  1.3795  0.4961
 4836TIP3    H130175   3.274   1.164   2.092 -0.6325  2.2025  0.0379
 4836TIP3    H230176   3.177   1.155   1.976 -0.0166  0.5829 -0.3766
 4837TIP3   OH230177   0.051   0.386   1.079 -0.1060  0.7630  0.1272
 4837TIP3    H130178   0.146   0.389   1.081 -0.0994  0.2701  0.9098
 4837TIP3    H230179   0.029   0.296   1.103 -0.7587  0.7341 -0.5423
 4838TIP3   OH230180   4.798   4.686   1.169 -0.1062  0.5184 -0.3102
 4838TIP3    H130181   4.714   4.640   1.175  0.0100  0.1664 -1.1951
 4838TIP3    H230182   4.824   4.700   1.260 -0.2119 -1.0522 -0.0001
 4839TIP3   OH230183   2.579   5.947   1.400  0.0876  0.7888 -0.6781
 4839TIP3    H130184   2.648   6.014   1.397 -0.6934  1.6401 -0.2765
 4839TIP3    H230185   2.569   5.928   1.494  1.2373 -0.9165 -0.8636
 4840TIP3   OH230186   1.193   4.094   0.619  0.6329  0.1709 -0.1625
 4840TIP3    H130187   1.213   4.010   0.661 -2.1114 -0.1385  0.7709
 4840TIP3    H230188   1.118   4.075   0.562  1.1891  1.6223 -1.4350
 4841TIP3   OH230189   2.620   4.973   0.710  0.2461  0.1437 -0.1815
 4841TIP3    H130190   2.564   4.957   0.634 -0.6733  0.2704  0.4478
 4841TIP3    H230191   2.628   5.068   0.713  0.7595  0.1104 -0.4505
 4842TIP3   OH230192   5.663   3.070   0.212  0.5811 -0.2598  0.8333
 4842TIP3    H130193   5.595   3.004   0.229  0.0977 -0.2041 -0.7768
 4842TIP3    H230194   5.732   3.023   0.166  0.9903  0.0068  1.1645
 4843TIP3   OH230195   2.775   3.221   5.911 -0.4320 -0.0353  0.3269
 4843TIP3    H130196   2.691   3.205   5.868 -0.4764 -2.8603  1.2587
 4843TIP3    H230197   2.780   3.155   5.980  1.3450  1.8620  2.1510
 4844TIP3   OH230198   5.841   5.663   1.127 -0.5094 -0.2062  0.4110
 4844TIP3    H130199   5.786   5.609   1.184 -0.9240  1.2049  1.4272
 4844TIP3    H230200   5.788   5.681   1.050 -0.1025 -1.7918 -0.2681
 4845TIP3   OH230201   5.040   5.056   6.610  0.3162  0.2879  1.0177
 4845TIP3    H130202   4.968   5.115   6.635 -0.4638  0.5236 -1.5149
 4845TIP3    H230203   5.061   5.081   6.520 -1.1834 -4.2559 -0.8588
 4846TIP3   OH230204   4.586   1.098   6.716  0.0362 -0.6708 -0.4779
 4846TIP3    H130205   4.621   1.119   6.629  4.2269 -1.9471  0.6469
 4846TIP3    H230206   4.528   1.024   6.701 -0.3307 -0.0832 -2.2754
 4847TIP3   OH230207   5.269   2.309   1.239 -0.0946 -0.2094 -0.2864
 4847TIP3    H130208   5.277   2.294   1.144 -1.0354  0.5176 -0.4984
 4847TIP3    H230209   5.358   2.330   1.267  0.5096 -1.9559 -0.7062
 4848TIP3   OH230210   6.025   2.680   0.726 -0.8599 -0.3045  0.5864
 4848TIP3    H130211   5.945   2.734   0.726 -0.0705  0.9186  0.2173
 4848TIP3    H230212   6.070   2.703   0.807  0.1035  0.5899 -0.1702
 4849TIP3   OH230213   2.156   5.585   2.622  0.3455  0.3805  0.1887
 4849TIP3    H130214   2.061   5.589   2.635  0.2795  1.7983 -0.5690
 4849TIP3    H230215   2.176   5.491   2.625 -0.9611  0.0918  1.0811
 4850TIP3   OH230216   5.189   3.323   7.422 -0.4708 -0.6640 -0.2795
 4850TIP3    H130217   5.252   3.374   7.372 -1.2910 -0.6839 -1.3770
 4850TIP3    H230218   5.224   3.321   7.511 -0.2066  1.4956 -0.2807
 4851TIP3   OH230219   0.408   3.386   0.671  0.0755 -0.2341  0.0806
 4851TIP3    H130220   0.421   3.474   0.706  1.0830 -0.9393  1.5445
 4851TIP3    H230221   0.493   3.360   0.637 -0.6255  0.0082 -2.0102
 4852TIP3   OH230222   4.871   2.114   6.388 -0.1323 -0.1930 -0.0119
 4852TIP3    H130223   4.912   2.175   6.449 -0.0845 -1.2318  1.0472
 4852TIP3    H230224   4.807   2.166   6.340 -1.2764  0.3669  2.0046
 4853TIP3   OH230225   2.093   1.696   2.217  0.3132  0.5399  0.6273
 4853TIP3    H130226   2.031   1.768   2.209  0.8918  0.8832 -1.0097
 4853TIP3    H230227   2.071   1.637   2.146  1.1461  0.1138  0.7093
 4854TIP3   OH230228   2.769   4.508   2.205  0.1207 -0.3290  0.3416
 4854TIP3    H130229   2.752   4.519   2.299  1.1146  1.2770  0.3759
 4854TIP3    H230230   2.780   4.597   2.172  1.1688 -0.9272 -1.0237
 4855TIP3   OH230231   5.014   0.537   7.308  0.1224 -0.1450 -0.1138
 4855TIP3    H130232   4.928   0.503   7.331  0.4866 -1.9511 -1.1766
 4855TIP3    H230233   5.015   0.627   7.341 -1.2819 -0.8337  2.0211
 4856TIP3   OH230234   5.860   2.687   1.997 -0.1314 -0.0941  0.5045
 4856TIP3    H130235   5.824   2.759   2.048 -1.1336 -2.0386  2.7564
 4856TIP3    H230236   5.784   2.633   1.974  0.7390 -1.3673  0.4787
 4857TIP3   OH230237   0.027   1.134   0.050 -0.3408  0.0725 -0.5407
 4857TIP3    H130238  -0.035   1.107  -0.017  1.2324 -1.2184 -1.5495
 4857TIP3    H230239   0.047   1.226   0.029 -0.8320  0.0695 -1.0304
 4858TIP3   OH230240   4.282   1.640   7.057 -0.0892 -0.3048  0.2604
 4858TIP3    H130241   4.318   1.641   7.145  0.5888 -1.1888  0.0057
 4858TIP3    H230242   4.256   1.549   7.043 -0.9640 -0.0009 -0.1503
 4859TIP3   OH230243   1.610   3.211   5.863  0.0076  0.0795 -0.1845
 4859TIP3    H130244   1.564   3.273   5.807 -0.3526 -0.3883 -0.4065
 4859TIP3    H230245   1.703   3.233   5.852 -0.1766  1.8504  1.2249
 4860TIP3   OH230246   1.865   2.345   0.101  0.4789  0.2416  0.8961
 4860TIP3    H130247   1.879   2.250   0.104  1.9867  0.4318  0.8120
 4860TIP3    H230248   1.823   2.360   0.017 -2.0700 -0.5776  1.9328
 4861TIP3   OH230249   4.330   5.228   1.711 -0.9205  0.0555 -0.0256
 4861TIP3    H130250   4.397   5.296   1.714 -0.9192  0.2671 -2.7626
 4861TIP3    H230251   4.256   5.266   1.759  0.4427  0.2810  2.0246
 4862TIP3   OH230252   3.444   0.501   0.854 -0.2942  0.5781  0.8028
 4862TIP3    H130253   3.459   0.549   0.936  2.1633  1.3693 -0.0151
 4862TIP3    H230254   3.523   0.449   0.842 -1.8804 -1.9386  0.4045
 4863TIP3   OH230255   0.196   2.394   1.822 -0.0486  0.1221 -0.2723
 4863TIP3    H130256   0.249   2.330   1.869  0.2682 -0.5110 -1.4616
 4863TIP3    H230257   0.114   2.349   1.803 -0.9291  0.9945  1.2802
 4864TIP3   OH230258   4.417   0.391   1.653 -0.2000 -0.8123  0.1038
 4864TIP3    H130259   4.358   0.461   1.625  0.2570 -0.4827 -0.0605
 4864TIP3    H230260   4.382   0.312   1.613 -1.3817 -0.8861  1.2036
 4865TIP3   OH230261   5.998   2.922   6.070  0.5164 -0.4496  0.8128
 4865TIP3    H130262   5.965   2.918   5.980  0.9368 -1.9480  0.7020
 4865TIP3    H230263   6.076   2.978   6.063  2.6321 -3.2677 -0.5246
 4866TIP3   OH230264   2.155   2.244   0.244 -0.6665 -0.3038  0.0140
 4866TIP3    H130265   2.092   2.235   0.173 -1.6417  1.1395  0.6370
 4866TIP3    H230266   2.163   2.339   0.256 -1.9416 -0.4615  2.9816
 4867TIP3   OH230267   5.322   4.460   2.283  0.5497  0.3402  0.0944
 4867TIP3    H130268   5.416   4.452   2.272  0.5513 -0.7320  0.7624
 4867TIP3    H230269   5.309   4.459   2.378 -0.0229  2.0014  0.0658
 4868TIP3   OH230270   0.865   5.556   1.563  0.3386  0.0617 -0.1164
 4868TIP3    H130271   0.773   5.529   1.560 -0.1538  1.3531  1.8642
 4868TIP3    H230272   0.864   5.648   1.538  1.0593  0.1437  0.1358
 4869TIP3   OH230273   4.524   2.088   1.469  0.0792  0.4649 -0.1771
 4869TIP3    H130274   4.549   2.141   1.544  0.3804  0.2474 -0.1241
 4869TIP3    H230275   4.430   2.073   1.480 -0.0289  1.0727 -0.2478
 4870TIP3   OH230276   5.464   3.114   7.734  0.3983  0.0282  0.0645
 4870TIP3    H130277   5.558   3.113   7.717  0.3581  0.6192 -0.2229
 4870TIP3    H230278   5.436   3.202   7.709 -0.1860 -0.0555  0.4009
 4871TIP3   OH230279   0.639   0.290   6.792  0.3678 -0.7545 -0.1078
 4871TIP3    H130280   0.608   0.362   6.847  1.8565  0.4947 -0.8210
 4871TIP3    H230281   0.611   0.211   6.838  0.3997  0.2548  1.7504
 4872TIP3   OH230282   2.299   5.918   7.757 -0.8302  0.1422 -0.0299
 4872TIP3    H130283   2.335   6.004   7.735  0.0658  0.0164  0.9020
 4872TIP3    H230284   2.210   5.937   7.787 -0.3901  0.8483  0.9028
 4873TIP3   OH230285   4.268   6.237   0.284  0.1795  0.3479  0.7160
 4873TIP3    H130286   4.237   6.227   0.374 -1.7044 -0.2198  0.0612
 4873TIP3    H230287   4.228   6.319   0.255  1.3139  0.8672  0.5753
 4874TIP3   OH230288   0.522   3.316   2.654 -0.0401 -0.3126 -0.2548
 4874TIP3    H130289   0.525   3.221   2.640  0.7483 -0.4985  1.0153
 4874TIP3    H230290   0.430   3.339   2.647 -0.2974 -1.2587 -0.0757
 4875TIP3   OH230291   2.033   0.745   1.986 -0.3741  0.3954  0.2082
 4875TIP3    H130292   2.099   0.724   1.920 -0.2294 -0.1742  0.5242
 4875TIP3    H230293   2.033   0.841   1.991 -0.1094  0.4242 -0.3344
 4876TIP3   OH230294   1.252   4.539   2.145 -0.2923  0.8112  0.0849
 4876TIP3    H130295   1.185   4.470   2.140 -0.2573  0.8679 -1.6277
 4876TIP3    H230296   1.317   4.503   2.205 -0.4430 -0.5286 -0.4955
 4877TIP3   OH230297   0.855   5.063   0.225 -0.2301 -0.1742  0.5475
 4877TIP3    H130298   0.851   4.980   0.176 -0.5333  0.8096 -1.1647
 4877TIP3    H230299   0.876   5.129   0.159 -0.4618  1.2007  1.7937
 4878TIP3   OH230300   1.144   5.377   7.579  0.0818  0.3048 -0.0308
 4878TIP3    H130301   1.217   5.318   7.600  0.9723  1.6326  0.8104
 4878TIP3    H230302   1.178   5.431   7.507 -0.3612  0.4124 -0.1578
 4879TIP3   OH230303   1.413   0.079   7.315 -0.5707  0.0161 -0.6478
 4879TIP3    H130304   1.391   0.135   7.389  2.0238  1.0783 -0.5667
 4879TIP3    H230305   1.358   0.002   7.326 -2.1425  1.2808  0.8855
 4880TIP3   OH230306   3.474   5.450   1.980  0.3245 -0.2242 -0.1267
 4880TIP3    H130307   3.538   5.381   1.996  1.3687  0.2389 -1.9943
 4880TIP3    H230308   3.398   5.405   1.943  0.5450 -0.5000 -0.2436
 4881TIP3   OH230309   0.837   5.558   6.972  0.4945 -0.0309  0.1431
 4881TIP3    H130310   0.906   5.624   6.974 -0.5525  1.0703  1.3488
 4881TIP3    H230311   0.881   5.479   6.940  2.1114  0.8449  0.0857
 4882TIP3   OH230312   5.581   3.511   6.698  0.0809  0.0663 -0.3485
 4882TIP3    H130313   5.598   3.594   6.652 -1.3279  1.3289  1.2768
 4882TIP3    H230314   5.513   3.469   6.645 -0.4898  0.8157 -0.2327
 4883TIP3   OH230315   0.938   5.030   7.644  0.3591  0.1277 -0.4671
 4883TIP3    H130316   0.990   4.954   7.673  0.8039 -0.1994 -1.9827
 4883TIP3    H230317   0.974   5.104   7.693  0.7274 -0.4611  0.1701
 4884TIP3   OH230318   0.476   0.516   0.510  0.0704 -0.5142  0.1090
 4884TIP3    H130319   0.542   0.471   0.457  0.4867 -0.4652  0.5792
 4884TIP3    H230320   0.523   0.544   0.588 -0.0232  1.2988 -0.4329
 4885TIP3   OH230321   2.561   0.313   0.123 -0.4342  0.1717  0.1080
 4885TIP3    H130322   2.544   0.383   0.186 -0.1261  1.2174 -0.9224
 4885TIP3    H230323   2.651   0.328   0.094 -1.1060  0.8204 -1.8384
 4886TIP3   OH230324   2.750   4.125   0.314 -0.5185  0.3510 -0.7605
 4886TIP3    H130325   2.714   4.201   0.268 -0.6188  1.0955  0.4742
 4886TIP3    H230326   2.775   4.160   0.400 -1.0437 -1.1332  0.0217
 4887TIP3   OH230327   2.506   4.282   0.257  0.0111 -0.2222  0.0697
 4887TIP3    H130328   2.531   4.335   0.181  3.6811 -1.0658  0.4838
 4887TIP3    H230329   2.434   4.228   0.225 -0.3029  1.2915 -1.9791
 4888TIP3   OH230330   2.997   2.955   1.120 -0.0790 -0.7425 -0.2020
 4888TIP3    H130331   3.043   3.038   1.135  1.3169 -1.3780 -0.7380
 4888TIP3    H230332   3.021   2.930   1.030 -2.0778 -0.7720 -0.7710
 4889TIP3   OH230333   5.977   0.883   7.298  0.1003  0.6127 -0.1263
 4889TIP3    H130334   6.067   0.898   7.328  0.3016  1.0885 -0.9518
 4889TIP3    H230335   5.953   0.799   7.338  0.0136  1.6502  2.1113
 4890TIP3   OH230336   0.404   1.697   1.200  0.2471 -0.0480 -0.2791
 4890TIP3    H130337   0.360   1.673   1.119  1.4250 -0.9460 -0.6846
 4890TIP3    H230338   0.492   1.660   1.191  0.5806  0.3439  1.1605
 4891TIP3   OH230339   2.362   5.085   2.439  0.2076  0.3235 -0.0208
 4891TIP3    H130340   2.454   5.093   2.414 -0.0794  1.6445 -0.7026
 4891TIP3    H230341   2.330   5.175   2.444 -0.8581 -0.0832  0.9842
 4892TIP3   OH230342   4.669   5.508   0.329 -0.3683  0.1234 -0.0171
 4892TIP3    H130343   4.610   5.441   0.363  1.1376 -1.5781 -0.5773
 4892TIP3    H230344   4.662   5.500   0.234 -0.6645  1.2499 -0.1023
 4893TIP3   OH230345   2.472   3.613   1.076 -0.0649  0.3607 -0.1667
 4893TIP3    H130346   2.425   3.639   1.155  2.8435  1.1900  1.4602
 4893TIP3    H230347   2.545   3.559   1.108  0.2098 -0.7927 -2.4962
 4894TIP3   OH230348   6.243   5.316   7.391 -0.0641 -0.3392  0.1400
 4894TIP3    H130349   6.233   5.339   7.483 -0.0118  2.8262 -0.5240
 4894TIP3    H230350   6.154   5.295   7.362 -0.8967  2.7710  0.0619
 4895TIP3   OH230351   2.566   0.140   2.769 -0.5461  0.1839  0.5663
 4895TIP3    H130352   2.571   0.102   2.857 -0.6551 -2.0750 -0.3275
 4895TIP3    H230353   2.652   0.123   2.731 -0.3062  1.6688  0.4127
 4896TIP3   OH230354   0.886   5.084   6.859  0.7736  0.6806  0.7642
 4896TIP3    H130355   0.825   5.037   6.916  0.0319 -0.1749 -0.6594
 4896TIP3    H230356   0.963   5.028   6.854  1.4430  1.4385  2.0199
 4897TIP3   OH230357   3.411   6.243   7.245 -0.2503  0.2018  0.2730
 4897TIP3    H130358   3.491   6.290   7.269 -0.5376  0.3827  0.8908
 4897TIP3    H230359   3.437   6.188   7.171  0.5561 -0.0666  0.7445
 4898TIP3   OH230360   2.497   1.350   2.313  0.2084 -0.1158  0.5023
 4898TIP3    H130361   2.560   1.421   2.301 -0.4702  0.5214  0.6109
 4898TIP3    H230362   2.550   1.274   2.338  0.9828  0.2455  0.0051
 4899TIP3   OH230363   1.061   6.117   1.279  0.1842 -0.4134 -0.3050
 4899TIP3    H130364   1.061   6.196   1.226 -0.0847 -2.0173 -2.8814
 4899TIP3    H230365   0.969   6.094   1.289  0.1837  0.2135  1.5242
 4900TIP3   OH230366   5.790   1.870   7.355 -0.3721  0.2402 -0.5254
 4900TIP3    H130367   5.728   1.922   7.405 -1.3525 -0.7420 -0.6713
 4900TIP3    H230368   5.848   1.832   7.421  0.7215  1.9277 -0.4614
 4901TIP3   OH230369   3.668   5.181   6.511 -0.0086 -0.1929 -0.1282
 4901TIP3    H130370   3.674   5.189   6.415  2.3976 -0.5410 -0.0550
 4901TIP3    H230371   3.708   5.096   6.530  2.6144  1.2515  1.3832
 4902TIP3   OH230372   3.702   6.233   6.788  0.2707  0.0791  0.2812
 4902TIP3    H130373   3.640   6.275   6.847  0.1089 -0.7804  0.7351
 4902TIP3    H230374   3.777   6.210   6.843  1.3464  1.7751 -0.4044
 4903TIP3   OH230375   6.308   5.350   5.503 -0.3540 -0.6755  0.2384
 4903TIP3    H130376   6.350   5.419   5.554 -3.0601 -0.1739  1.9907
 4903TIP3    H230377   6.370   5.277   5.504  2.1716  1.3241 -0.8600
 4904TIP3   OH230378   0.207   2.449   2.179 -0.0701 -0.1292 -0.3233
 4904TIP3    H130379   0.244   2.460   2.266 -1.3732  0.9948  0.1078
 4904TIP3    H230380   0.248   2.369   2.146  0.2733 -0.6993  1.3961
 4905TIP3   OH230381   4.698   6.141   0.306  0.3349  0.0717  0.4258
 4905TIP3    H130382   4.778   6.121   0.256 -0.4517 -1.1028 -0.4047
 4905TIP3    H230383   4.716   6.107   0.394  1.1802  0.8599  0.5716
 4906TIP3   OH230384   2.419   4.251   2.031 -0.2299  0.6798 -0.0222
 4906TIP3    H130385   2.410   4.287   2.119  0.0863  1.9919 -0.4999
 4906TIP3    H230386   2.505   4.280   2.002 -0.9858  1.7152 -1.3745
 4907TIP3   OH230387   0.910   1.700   7.561 -0.5708  0.2497  0.0799
 4907TIP3    H130388   0.904   1.633   7.629 -1.5347  0.9263  0.6814
 4907TIP3    H230389   0.829   1.751   7.569 -0.4478  0.7021 -1.2051
 4908TIP3   OH230390   3.896   4.004   0.217  0.8861 -0.2299 -0.0612
 4908TIP3    H130391   3.941   3.993   0.300 -2.4984 -2.3041  1.6987
 4908TIP3    H230392   3.883   3.915   0.184 -0.1128  0.4140 -1.5218
 4909TIP3   OH230393   4.796   1.457   7.192 -0.3651  0.4861 -0.2080
 4909TIP3    H130394   4.711   1.414   7.202  0.6761 -2.1566 -1.6428
 4909TIP3    H230395   4.814   1.496   7.278 -2.4689  0.0414  0.4830
 4910TIP3   OH230396   3.844   6.124   0.972  0.3321  0.1669  0.6639
 4910TIP3    H130397   3.808   6.057   0.913  1.8958 -0.6075  0.5366
 4910TIP3    H230398   3.846   6.082   1.058  0.7121  0.2763  0.7092
 4911TIP3   OH230399   2.082   2.119   1.795  0.3201 -0.3374 -0.2332
 4911TIP3    H130400   2.031   2.183   1.844  0.1062 -1.8380  1.6105
 4911TIP3    H230401   2.025   2.095   1.721  0.4423  1.5839 -1.0243
 4912TIP3   OH230402   0.041   3.465   2.167  0.1910 -0.2156  0.3535
 4912TIP3    H130403   0.088   3.410   2.230  1.2572 -0.2980 -0.4807
 4912TIP3    H230404  -0.012   3.523   2.220  2.8972  1.3983  1.4715
 4913TIP3   OH230405   3.830   1.681   2.897  0.0420 -0.3892  0.2557
 4913TIP3    H130406   3.772   1.720   2.962  0.1396  0.9992 -0.4428
 4913TIP3    H230407   3.783   1.604   2.865 -0.8273 -0.0201  0.6242
 4914TIP3   OH230408   6.106   5.772   6.832 -0.4670  0.6319 -0.3115
 4914TIP3    H130409   6.076   5.860   6.809 -1.7270  0.5079  0.7582
 4914TIP3    H230410   6.180   5.788   6.892 -0.5773  0.9538 -0.2584
 4915TIP3   OH230411   0.948   0.602   2.645  0.4150 -0.2375  0.2678
 4915TIP3    H130412   0.917   0.638   2.728  1.1548 -0.8421  0.8215
 4915TIP3    H230413   1.040   0.580   2.661 -0.5943 -4.9652  0.9222
 4916TIP3   OH230414   5.038   3.885   1.262 -0.0888  0.5205  0.0119
 4916TIP3    H130415   5.083   3.969   1.269  0.7765 -0.0665  2.7219
 4916TIP3    H230416   5.105   3.824   1.230  0.1518  0.3136  0.8716
 4917TIP3   OH230417   0.599   4.604   1.596  0.0361  0.2800 -0.4232
 4917TIP3    H130418   0.651   4.676   1.562  0.4999 -0.5679 -1.5657
 4917TIP3    H230419   0.508   4.627   1.576 -0.0285  1.4852  1.0548
 4918TIP3   OH230420   2.138   2.347   7.212 -0.1854  0.0470 -0.4196
 4918TIP3    H130421   2.168   2.417   7.153 -0.2356 -0.4196 -0.9965
 4918TIP3    H230422   2.190   2.361   7.292  0.5100  0.1568 -0.8766
 4919TIP3   OH230423   3.330   2.957   1.094 -0.1423  0.2015 -0.6546
 4919TIP3    H130424   3.290   3.028   1.044 -0.2234  0.8609  0.3253
 4919TIP3    H230425   3.289   2.963   1.181 -1.2048 -1.9331 -0.9539
 4920TIP3   OH230426   5.424   1.079   7.448  0.1428  0.3085 -0.3430
 4920TIP3    H130427   5.412   1.091   7.354  2.0189 -1.0958 -0.8214
 4920TIP3    H230428   5.512   1.111   7.466  0.0123  0.0572  0.8380
 4921TIP3   OH230429   3.849   5.512   6.800 -0.2069  0.1305  0.2320
 4921TIP3    H130430   3.880   5.551   6.882  1.0450  0.4732 -0.3754
 4921TIP3    H230431   3.873   5.419   6.807 -2.5208 -0.4641  1.3593
 4922TIP3   OH230432   2.537   0.512   1.543  0.0597  0.1155 -0.3717
 4922TIP3    H130433   2.540   0.442   1.608  0.0312 -0.1272 -0.6298
 4922TIP3    H230434   2.466   0.487   1.484 -0.4062  0.7085 -0.0741
 4923TIP3   OH230435   3.592   3.010   0.752 -0.6952  0.2308 -0.3713
 4923TIP3    H130436   3.639   3.049   0.679  1.3285  0.3099  0.8936
 4923TIP3    H230437   3.523   3.073   0.774 -0.0055  1.1709 -0.8846
 4924TIP3   OH230438   4.703   0.118   2.173  0.0648  0.4046 -0.0859
 4924TIP3    H130439   4.726   0.191   2.230 -0.8400 -0.3054  1.2712
 4924TIP3    H230440   4.762   0.125   2.098  0.6152  1.9661  0.4608
 4925TIP3   OH230441   0.876   3.768   0.351 -1.1075 -0.1860 -1.1106
 4925TIP3    H130442   0.895   3.788   0.260 -0.3588 -2.0676 -1.4098
 4925TIP3    H230443   0.910   3.679   0.364 -0.2255  0.4201  1.2869
 4926TIP3   OH230444   1.442   1.861   7.326 -0.0065 -0.2130  0.8673
 4926TIP3    H130445   1.368   1.887   7.271 -1.1560 -0.3996  2.2507
 4926TIP3    H230446   1.403   1.804   7.393  0.7615  2.0850  3.5070
 4927TIP3   OH230447   0.089   3.782   7.436  0.2379 -0.3633 -0.1542
 4927TIP3    H130448  -0.003   3.775   7.462  0.0226 -2.5960 -1.2254
 4927TIP3    H230449   0.133   3.712   7.484  0.9959 -0.5180 -1.0333
 4928TIP3   OH230450   2.458   2.691   1.914 -0.0676  0.4697  0.7616
 4928TIP3    H130451   2.376   2.648   1.939  0.8615 -4.1365 -2.6534
 4928TIP3    H230452   2.522   2.659   1.977  0.1436 -1.4392 -0.3248
 4929TIP3   OH230453   6.066   4.535   2.415  0.0842  0.3237 -0.4190
 4929TIP3    H130454   6.120   4.476   2.467  0.6755 -0.8557 -2.2718
 4929TIP3    H230455   5.976   4.512   2.438  0.3069  1.1940  1.4925
 4930TIP3   OH230456   1.772   3.643   1.003 -0.0084  0.0155 -0.4555
 4930TIP3    H130457   1.803   3.560   1.040 -1.3806 -0.8418 -1.1063
 4930TIP3    H230458   1.764   3.625   0.909 -0.1932  0.9352 -0.6241
 4931TIP3   OH230459   1.763   2.099   1.302  0.0422 -0.1933 -0.7893
 4931TIP3    H130460   1.853   2.122   1.326  0.6981 -0.6741 -2.6469
 4931TIP3    H230461   1.734   2.172   1.247  0.0503 -0.9612 -1.8556
 4932TIP3   OH230462   1.706   0.149   1.839 -0.4167 -0.4555  0.3471
 4932TIP3    H130463   1.730   0.174   1.929  0.0116 -0.4538  0.2368
 4932TIP3    H230464   1.721   0.228   1.787 -0.2623 -0.5735  0.2083
 4933TIP3   OH230465   5.230   5.119   1.074  0.1260 -0.3304  0.8857
 4933TIP3    H130466   5.203   5.148   0.986 -0.1325  0.7970  1.3244
 4933TIP3    H230467   5.148   5.098   1.118  0.3095 -1.9214  0.5428
 4934TIP3   OH230468   3.523   0.196   6.663  0.0007 -0.1693 -0.1976
 4934TIP3    H130469   3.485   0.237   6.586 -0.6949  1.3114  0.8848
 4934TIP3    H230470   3.465   0.222   6.735  0.5541 -1.6112  0.8094
 4935TIP3   OH230471   3.292   1.053   5.593 -0.5546 -0.2057  0.2479
 4935TIP3    H130472   3.297   0.971   5.543 -0.5116 -0.0100 -0.0716
 4935TIP3    H230473   3.373   1.099   5.573 -0.5190 -0.1421  0.5317
 4936TIP3   OH230474   4.154   6.036   1.392 -0.3044 -0.3550  0.0842
 4936TIP3    H130475   4.141   5.949   1.356  1.9990 -0.8350  0.2537
 4936TIP3    H230476   4.203   6.084   1.325 -0.1870  0.2878  0.6078
 4937TIP3   OH230477   3.494   1.832   0.434 -0.4897 -0.4381  0.2679
 4937TIP3    H130478   3.419   1.782   0.400 -0.9640  0.2945  0.2062
 4937TIP3    H230479   3.511   1.795   0.520 -1.5048 -0.0352  0.6605
 4938TIP3   OH230480   3.981   0.551   0.896  0.0634  0.0267  0.3400
 4938TIP3    H130481   4.013   0.639   0.912 -1.7460  0.8165 -0.1241
 4938TIP3    H230482   4.005   0.501   0.974  1.6511  0.7407  0.3376
 4939TIP3   OH230483   4.348   2.187   1.045  0.4129  0.3688 -0.2437
 4939TIP3    H130484   4.357   2.217   1.135 -1.7559 -0.4597  0.3274
 4939TIP3    H230485   4.415   2.119   1.035 -0.1308 -0.4221  1.1886
 4940TIP3   OH230486   2.192   0.490   6.945  0.2280  0.9141 -0.5958
 4940TIP3    H130487   2.216   0.413   6.894 -0.2662  1.5082 -1.7851
 4940TIP3    H230488   2.239   0.562   6.903  0.2292  1.3452  0.1310
 4941TIP3   OH230489   5.107   2.176   0.195 -0.0427  0.4427  0.3570
 4941TIP3    H130490   5.022   2.211   0.222 -0.5446  0.2178 -0.8521
 4941TIP3    H230491   5.169   2.247   0.211 -0.3982  0.4949  1.5610
 4942TIP3   OH230492   2.071   1.432   0.631  0.1645  0.1786 -0.4186
 4942TIP3    H130493   2.012   1.393   0.696  0.2831 -0.1130 -0.4848
 4942TIP3    H230494   2.023   1.427   0.548  0.1354  0.2760 -0.4079
 4943TIP3   OH230495   5.682   2.598   7.297 -0.2292 -0.0904 -0.6533
 4943TIP3    H130496   5.712   2.679   7.256  1.9968 -0.1522  0.6737
 4943TIP3    H230497   5.692   2.531   7.229  0.8215  0.2594 -0.8572
 4944TIP3   OH230498   4.579   1.775   1.632 -0.4557 -0.2267 -0.2188
 4944TIP3    H130499   4.566   1.813   1.545  1.1191 -0.7688 -0.7115
 4944TIP3    H230500   4.550   1.844   1.692 -1.5191  0.1701 -1.1450
 4945TIP3   OH230501   2.340   4.753   6.184 -0.1214 -0.4557  0.2786
 4945TIP3    H130502   2.424   4.799   6.186 -0.4722  0.2061 -0.1171
 4945TIP3    H230503   2.358   4.670   6.230  0.0777  0.7894  2.6119
 4946TIP3   OH230504   0.518   1.721   1.442  0.1221 -0.0118 -0.0250
 4946TIP3    H130505   0.518   1.626   1.428  0.5054 -0.1399  0.7866
 4946TIP3    H230506   0.487   1.757   1.359  0.1596 -0.8363 -0.4112
 4947TIP3   OH230507   1.399   6.085   7.120 -0.1191 -0.2962  0.0477
 4947TIP3    H130508   1.390   6.001   7.074  0.4167 -0.5185  0.3441
 4947TIP3    H230509   1.369   6.067   7.209  0.6754 -0.3593  0.3081
 4948TIP3   OH230510   1.425   4.175   1.969  0.8805 -0.0666  0.0638
 4948TIP3    H130511   1.476   4.256   1.970  1.5088 -0.4594  0.1483
 4948TIP3    H230512   1.456   4.128   1.891  1.6148 -0.9040  0.8397
 4949TIP3   OH230513   1.053   4.799   6.790  0.4979 -0.3303  0.7909
 4949TIP3    H130514   1.118   4.844   6.843  1.0979  0.8421 -0.8682
 4949TIP3    H230515   1.088   4.801   6.701 -1.1489 -0.9101  0.0820
 4950TIP3   OH230516   5.034   5.964   7.666  0.1344 -0.1901 -0.0433
 4950TIP3    H130517   5.027   5.869   7.659 -0.1792 -0.2692  1.2077
 4950TIP3    H230518   4.944   5.995   7.675  0.2741  0.1695  0.1619
 4951TIP3   OH230519   4.568   0.099   6.129 -0.0802 -0.2733 -0.2692
 4951TIP3    H130520   4.555   0.008   6.156 -0.3342 -0.2510 -0.3149
 4951TIP3    H230521   4.660   0.116   6.145 -0.0142 -0.5669 -0.3403
 4952TIP3   OH230522   4.712   4.615   1.526 -0.2552 -0.4016 -0.0143
 4952TIP3    H130523   4.760   4.561   1.464  0.6318 -0.0244  0.3182
 4952TIP3    H230524   4.768   4.619   1.603  0.6767  2.5164 -0.6832
 4953TIP3   OH230525   5.909   1.355   6.195  0.1025  0.5967 -0.1498
 4953TIP3    H130526   5.878   1.368   6.105  1.4451 -1.0044 -0.8912
 4953TIP3    H230527   5.951   1.438   6.218 -0.3225  1.0469 -0.9501
 4954TIP3   OH230528   6.301   4.706   1.396 -0.6326 -0.1254  0.2265
 4954TIP3    H130529   6.214   4.686   1.429 -1.2334  0.0874 -1.1525
 4954TIP3    H230530   6.339   4.765   1.461 -1.6115 -0.0349  0.7313
 4955TIP3   OH230531   4.926   3.586   6.939 -0.6148  0.3747  0.3133
 4955TIP3    H130532   4.984   3.633   6.879  0.6609 -0.5796  0.7537
 4955TIP3    H230533   4.948   3.494   6.927 -0.5811  0.1397  1.9773
 4956TIP3   OH230534   4.036   4.077   0.695 -0.3256  0.1282  0.1537
 4956TIP3    H130535   4.076   4.128   0.625 -0.5769 -1.0188 -0.8477
 4956TIP3    H230536   4.087   3.997   0.699 -0.6571 -0.0605  0.9295
 4957TIP3   OH230537   3.691   3.558   1.636 -0.4819 -0.2928  0.1500
 4957TIP3    H130538   3.692   3.619   1.562 -0.1716 -0.5565 -0.0687
 4957TIP3    H230539   3.612   3.507   1.623 -1.2250  0.6486  0.8290
 4958TIP3   OH230540   5.831   3.875   1.827  0.4955 -0.2382  0.0765
 4958TIP3    H130541   5.821   3.871   1.922  1.0983  1.6003  0.2659
 4958TIP3    H230542   5.875   3.959   1.811  1.9983 -1.2892 -1.7193
 4959TIP3   OH230543   3.418   0.804   1.383  0.2196 -0.3645 -0.5635
 4959TIP3    H130544   3.482   0.745   1.422  1.4042  0.9747 -0.3855
 4959TIP3    H230545   3.471   0.866   1.332 -0.9637  0.5183 -0.7698
 4960TIP3   OH230546   4.228   0.792   7.607 -0.1286 -0.4898 -0.1793
 4960TIP3    H130547   4.180   0.716   7.576 -1.6480  0.3750 -0.0064
 4960TIP3    H230548   4.249   0.841   7.527  1.5149 -1.4025 -0.3727
 4961TIP3   OH230549   5.733   4.564   1.186  0.0732  0.3598 -0.0248
 4961TIP3    H130550   5.727   4.469   1.186  0.5675  0.3264 -0.4036
 4961TIP3    H230551   5.823   4.582   1.213 -0.0713  0.7246  0.2208
 4962TIP3   OH230552   4.963   3.313   6.906  0.2851  0.2760  0.1217
 4962TIP3    H130553   4.896   3.268   6.854 -1.1794  0.4357  1.7768
 4962TIP3    H230554   4.994   3.247   6.969  0.2007  0.7659  0.6926
 4963TIP3   OH230555   0.924   1.514   0.002  0.2374 -0.1095 -0.1408
 4963TIP3    H130556   0.999   1.463   0.033  0.4094  0.5921  0.6361
 4963TIP3    H230557   0.852   1.488   0.058 -0.0339 -0.5570 -0.6892
 4964TIP3   OH230558   2.917   4.435   0.333 -0.3707 -0.5352 -0.6005
 4964TIP3    H130559   2.843   4.389   0.294 -0.5199 -0.0417 -0.9156
 4964TIP3    H230560   2.900   4.528   0.314  0.4479 -0.4376 -0.8847
 4965TIP3   OH230561   1.750   1.239   1.396 -0.0390 -0.1074  0.8547
 4965TIP3    H130562   1.681   1.274   1.453 -1.2176  0.7448 -1.0248
 4965TIP3    H230563   1.773   1.311   1.338  0.8642 -1.0484  0.0037
 4966TIP3   OH230564   0.238   1.579   1.388 -0.6706 -0.1381 -0.0183
 4966TIP3    H130565   0.290   1.630   1.327 -0.9115 -1.0104 -0.9870
 4966TIP3    H230566   0.198   1.511   1.334 -2.3628  0.1619  0.7801
 4967TIP3   OH230567   2.641   2.136   7.456  0.2792  0.3306 -0.1130
 4967TIP3    H130568   2.568   2.196   7.466 -0.5514 -0.8541  1.1526
 4967TIP3    H230569   2.626   2.067   7.521  1.5837 -0.8691 -1.0120
 4968TIP3   OH230570   1.250   0.405   6.889  0.1718  0.4843 -0.3724
 4968TIP3    H130571   1.285   0.361   6.966  1.5341 -1.1507 -1.8428
 4968TIP3    H230572   1.318   0.467   6.864  0.3793 -0.0011 -1.0470
 4969TIP3   OH230573   3.609   0.425   0.544  0.2541  0.0221  0.8080
 4969TIP3    H130574   3.656   0.391   0.621  0.7533  0.5009  0.7172
 4969TIP3    H230575   3.517   0.402   0.560  0.0809  1.6523  2.4010
 4970TIP3   OH230576   0.245   1.931   6.591 -0.1385 -0.0475  0.1275
 4970TIP3    H130577   0.154   1.958   6.588 -0.5710 -1.4646 -0.8525
 4970TIP3    H230578   0.283   1.962   6.509 -0.6262 -2.1538 -0.9832
 4971TIP3   OH230579   0.006   2.479   7.052  0.3993 -0.5252 -0.0673
 4971TIP3    H130580  -0.051   2.509   7.123  1.9094 -1.8220  1.8193
 4971TIP3    H230581  -0.002   2.546   6.985 -1.8870  0.2636  0.8807
 4972TIP3   OH230582   3.698   1.229   5.930  0.0238  0.0848 -0.3264
 4972TIP3    H130583   3.650   1.278   5.864  1.0055 -0.0340 -1.1575
 4972TIP3    H230584   3.790   1.244   5.909  0.4076 -2.6175 -1.0482
 4973TIP3   OH230585   1.513   4.260   7.178  0.0110  0.5797 -0.0581
 4973TIP3    H130586   1.538   4.167   7.175 -0.4792  0.4665 -2.1529
 4973TIP3    H230587   1.479   4.278   7.091  0.3585  2.8262  0.2253
 4974TIP3   OH230588   3.380   2.040   0.833 -0.3326  1.0467  0.2200
 4974TIP3    H130589   3.405   1.995   0.914 -2.0097  0.3253  0.3744
 4974TIP3    H230590   3.384   2.133   0.856  2.1977  1.0213  0.1838
 4975TIP3   OH230591   3.731   4.411   6.298  0.0423  0.2052 -0.3788
 4975TIP3    H130592   3.762   4.353   6.229 -0.7101  0.8352 -1.2756
 4975TIP3    H230593   3.705   4.491   6.252  0.2586  0.9331  0.7325
 4976TIP3   OH230594   0.147   5.761   0.341 -0.4702 -0.1423 -0.0130
 4976TIP3    H130595   0.144   5.696   0.411 -1.0710  0.6572  0.7397
 4976TIP3    H230596   0.188   5.716   0.268 -0.5379 -1.2489  0.6016
 4977TIP3   OH230597   5.744   5.352   1.607 -0.3969 -0.7526  0.0058
 4977TIP3    H130598   5.673   5.352   1.544 -0.3354 -0.3167 -0.0686
 4977TIP3    H230599   5.822   5.329   1.556 -0.7056 -2.7457  0.3658
 4978TIP3   OH230600   3.495   0.634   7.489 -0.0945 -0.4593 -0.2083
 4978TIP3    H130601   3.499   0.551   7.536  0.2773 -0.5760 -0.4373
 4978TIP3    H230602   3.541   0.697   7.546  1.6215 -0.9087 -1.0223
 4979TIP3   OH230603   1.001   3.285   1.624 -0.4754 -0.3489 -0.2834
 4979TIP3    H130604   1.051   3.350   1.675 -0.2551 -1.4294  0.9404
 4979TIP3    H230605   1.058   3.208   1.622 -1.0243 -0.7469 -1.1190
 4980TIP3   OH230606   4.362   1.246   0.079 -0.1662 -0.4155 -0.4097
 4980TIP3    H130607   4.453   1.224   0.065  0.0475 -0.1629  0.4675
 4980TIP3    H230608   4.365   1.325   0.133 -0.8865 -0.7666  0.1737
 4981TIP3   OH230609   3.024   2.987   0.603  0.0087  0.2104  0.6947
 4981TIP3    H130610   2.939   2.944   0.613 -0.3795  1.1358  1.4946
 4981TIP3    H230611   3.003   3.078   0.581  0.8083  0.2268 -0.0713
 4982TIP3   OH230612   0.268   0.635   0.877  0.2495 -0.3455 -0.2110
 4982TIP3    H130613   0.296   0.597   0.960  1.4168 -0.5626 -0.6786
 4982TIP3    H230614   0.350   0.657   0.832 -0.3665  0.0113 -1.1930
 4983TIP3   OH230615   5.719   6.267   7.311  0.7730  0.0057 -0.1004
 4983TIP3    H130616   5.640   6.217   7.332 -1.1853  1.6390 -2.8534
 4983TIP3    H230617   5.759   6.285   7.396 -1.8525 -0.8578  1.4411
 4984TIP3   OH230618   5.830   0.440   1.166 -0.2267 -0.4660  0.3728
 4984TIP3    H130619   5.864   0.508   1.108  1.3593 -1.5717 -0.0706
 4984TIP3    H230620   5.739   0.428   1.138 -0.4483  1.2408  0.2709
 4985TIP3   OH230621   5.542   2.058   6.457  0.1839  0.4255 -0.7857
 4985TIP3    H130622   5.534   1.963   6.469 -0.0093  0.5455  0.0392
 4985TIP3    H230623   5.538   2.094   6.545  1.9695  1.0830 -0.9340
 4986TIP3   OH230624   6.186   0.953   2.007 -0.3109 -0.5016  0.0431
 4986TIP3    H130625   6.104   0.993   1.979 -0.8526 -0.3596  1.7006
 4986TIP3    H230626   6.254   1.012   1.973 -0.8745 -0.6400 -1.3695
 4987TIP3   OH230627   0.645   0.986   7.601 -0.2132  0.3354  0.0020
 4987TIP3    H130628   0.655   0.996   7.696 -0.3249  0.6206 -0.0158
 4987TIP3    H230629   0.727   0.944   7.573 -0.3947 -0.2233  0.2927
 4988TIP3   OH230630   4.515   3.058   1.662  0.4926 -0.2226 -0.1505
 4988TIP3    H130631   4.423   3.081   1.675  0.6067  0.4012 -0.4127
 4988TIP3    H230632   4.564   3.133   1.695  0.8752 -0.1142 -0.9288
 4989TIP3   OH230633   4.437   1.180   6.136  0.0492  0.2160  0.4026
 4989TIP3    H130634   4.409   1.105   6.084  0.0275  0.3675  0.1959
 4989TIP3    H230635   4.386   1.253   6.102  0.4555  0.4296  0.2430
 4990TIP3   OH230636   1.909   0.531   7.656 -0.0460  0.1906 -0.3045
 4990TIP3    H130637   1.941   0.451   7.696 -0.9872 -0.1469 -0.1844
 4990TIP3    H230638   1.818   0.511   7.631  0.1181  0.7923 -1.4731
 4991TIP3   OH230639   3.054   4.293   0.131 -0.2074  0.0425 -0.0256
 4991TIP3    H130640   3.029   4.209   0.169  1.4671  0.2518  1.7077
 4991TIP3    H230641   3.049   4.355   0.205 -1.9541  1.6317 -1.3778
 4992TIP3   OH230642   3.201   0.853   7.146 -0.2792  0.4597  0.2701
 4992TIP3    H130643   3.159   0.933   7.176 -0.2395  0.7559 -0.4437
 4992TIP3    H230644   3.211   0.800   7.225 -0.2967  1.1598  0.7496
 4993TIP3   OH230645   2.675   1.887   5.887  0.1232 -0.0462  0.5699
 4993TIP3    H130646   2.652   1.931   5.969  1.1495  2.5131 -0.4136
 4993TIP3    H230647   2.599   1.901   5.830 -0.1252 -0.8222  0.7050
 4994TIP3   OH230648   2.616   5.789   0.444 -0.3431  0.0905 -0.0489
 4994TIP3    H130649   2.692   5.844   0.427 -1.2064  1.6584  0.9497
 4994TIP3    H230650   2.555   5.809   0.374 -1.8397  2.7313  1.8240
 4995TIP3   OH230651   1.036   0.982   0.095 -0.0821  0.3583 -0.2354
 4995TIP3    H130652   1.039   1.034   0.176 -0.8370 -0.6113  0.4293
 4995TIP3    H230653   0.949   0.996   0.060 -0.0814  0.0163 -0.3770
 4996TIP3   OH230654   2.496   2.334   7.634 -0.0068  0.3329 -0.0636
 4996TIP3    H130655   2.537   2.420   7.622  1.1825  0.2470  2.7778
 4996TIP3    H230656   2.540   2.296   7.709 -1.9095 -1.9496  0.0166
 4997TIP3   OH230657   0.268   4.538   7.365 -0.0168  0.0439  0.0718
 4997TIP3    H130658   0.208   4.466   7.382  0.7586 -0.4084  0.9806
 4997TIP3    H230659   0.236   4.610   7.420 -0.8109  0.4197 -0.8623
 4998TIP3   OH230660   5.665   0.816   1.122  0.4198  0.0169  0.2159
 4998TIP3    H130661   5.728   0.842   1.189  1.2170 -2.9997  0.8241
 4998TIP3    H230662   5.628   0.734   1.155  1.1347 -1.8570 -3.1241
 4999TIP3   OH230663   4.511   1.394   6.502 -0.0144 -0.5387  0.2890
 4999TIP3    H130664   4.602   1.423   6.506 -0.9028  2.5610  0.1088
 4999TIP3    H230665   4.481   1.393   6.592 -0.0238 -0.9059  0.2866
 5000TIP3   OH230666   0.016   4.082   2.238  0.3691  0.0289 -0.0410
 5000TIP3    H130667  -0.048   4.141   2.278  1.7829  2.2527 -0.8465
 5000TIP3    H230668   0.020   4.007   2.297 -2.5477  0.0320  0.2962
 5001TIP3   OH230669   1.238   6.166   7.381  0.5599  0.5781 -0.0286
 5001TIP3    H130670   1.148   6.199   7.381  0.4087  0.3041  1.8551
 5001TIP3    H230671   1.240   6.101   7.452  1.8206 -0.6831 -1.1616
 5002TIP3   OH230672   2.679   4.073   1.080  0.3682  0.4378  0.9046
 5002TIP3    H130673   2.635   4.127   1.145  0.4301  0.3187  1.0434
 5002TIP3    H230674   2.722   4.137   1.023  0.0266  0.5536  0.7728
 5003TIP3   OH230675   1.324   1.102   1.569 -0.0455 -0.2527  0.2002
 5003TIP3    H130676   1.420   1.101   1.566 -0.0287 -0.7374  0.7467
 5003TIP3    H230677   1.303   1.147   1.651 -0.2919  0.0123 -0.0051
 5004TIP3   OH230678   1.566   2.433   0.440 -0.1878  0.8377 -0.6695
 5004TIP3    H130679   1.584   2.354   0.390 -0.6995 -0.7510  1.5035
 5004TIP3    H230680   1.553   2.402   0.530 -0.2527  3.4172  0.2944
 5005TIP3   OH230681   1.814   4.481   0.216  0.2896  0.3416  0.6973
 5005TIP3    H130682   1.802   4.396   0.257 -0.3284  0.1406  0.1161
 5005TIP3    H230683   1.844   4.538   0.287  0.8916 -0.3964  1.0484
 5006TIP3   OH230684   2.958   3.380   1.170 -0.2677 -0.4301 -0.2048
 5006TIP3    H130685   2.986   3.440   1.101  0.3610  0.2784  0.6300
 5006TIP3    H230686   3.018   3.306   1.162  1.7827  0.9508  1.3815
 5007TIP3   OH230687   0.547   0.116   1.536  0.6239 -0.3726  0.3323
 5007TIP3    H130688   0.501   0.174   1.475  0.7653 -0.8472 -0.2331
 5007TIP3    H230689   0.491   0.039   1.543  1.0241 -0.6820  0.1394
 5008TIP3   OH230690   1.741   6.003   0.334 -0.3662  0.1099 -0.0199
 5008TIP3    H130691   1.694   6.087   0.335 -0.5487  0.0175 -0.3982
 5008TIP3    H230692   1.801   6.008   0.408  0.7151  1.1895 -0.9228
 5009TIP3   OH230693   0.938   3.029   7.666  0.7160  0.1977  0.3169
 5009TIP3    H130694   0.905   2.941   7.646  0.4923 -0.4263  3.1325
 5009TIP3    H230695   1.027   3.029   7.629  1.7724 -2.2410  2.5186
 5010TIP3   OH230696   2.954   3.897   1.230 -0.2579 -0.0100 -0.0310
 5010TIP3    H130697   2.872   3.850   1.244 -0.5341  0.8038  1.2687
 5010TIP3    H230698   2.945   3.977   1.282  0.9026  0.6399 -0.7829
 5011TIP3   OH230699   3.692   1.807   2.157  0.1275  0.3027 -0.1276
 5011TIP3    H130700   3.734   1.722   2.149  1.3332  0.6276  2.0518
 5011TIP3    H230701   3.676   1.834   2.066 -1.2284 -2.6316 -0.8992
 5012TIP3   OH230702   2.871   3.179   2.648 -0.1770 -0.3265  0.0723
 5012TIP3    H130703   2.893   3.143   2.734  0.2854 -0.5215 -0.1269
 5012TIP3    H230704   2.920   3.125   2.586 -1.2653 -0.8125 -0.3842
 5013TIP3   OH230705   0.059   1.494   5.873  0.0545  0.1000 -0.0798
 5013TIP3    H130706   0.076   1.557   5.803  0.0019  1.0052  0.7079
 5013TIP3    H230707  -0.028   1.459   5.852  1.1727 -1.8008 -2.0477
 5014TIP3   OH230708   5.808   5.371   7.760 -0.5646  0.7353  0.0194
 5014TIP3    H130709   5.804   5.295   7.702  1.1973 -0.7830  1.7288
 5014TIP3    H230710   5.862   5.434   7.713  0.6754 -0.3881 -0.1461
 5015TIP3   OH230711   6.250   1.252   7.271  0.3320 -0.2162  0.3195
 5015TIP3    H130712   6.179   1.298   7.227  0.5198 -0.6920 -0.4871
 5015TIP3    H230713   6.329   1.279   7.224  0.5185 -0.8183  0.2820
 5016TIP3   OH230714   3.712   4.483   6.590 -0.6027 -0.2184 -0.4058
 5016TIP3    H130715   3.733   4.446   6.505 -1.6388  0.2626 -0.8801
 5016TIP3    H230716   3.626   4.448   6.612  0.0340 -1.0639  0.8731
 5017TIP3   OH230717   6.210   1.407   1.017 -0.1116 -0.0806 -1.0528
 5017TIP3    H130718   6.162   1.373   0.942 -0.5921  0.0904 -0.8275
 5017TIP3    H230719   6.249   1.330   1.058  1.0163 -0.0732 -2.0560
 5018TIP3   OH230720   0.363   2.725   6.123  0.4431 -0.5522 -0.3206
 5018TIP3    H130721   0.411   2.695   6.045  0.5340 -1.1827 -0.0264
 5018TIP3    H230722   0.347   2.818   6.106  2.4998 -0.0946 -0.0848
 5019TIP3   OH230723   1.440   4.439   2.657  0.0133 -0.1343 -1.2767
 5019TIP3    H130724   1.513   4.497   2.679  0.5953 -0.7313 -1.6036
 5019TIP3    H230725   1.482   4.358   2.628 -0.7810 -1.0344 -0.0322
 5020TIP3   OH230726   0.558   3.672   7.013  0.3546  0.3231 -0.6450
 5020TIP3    H130727   0.510   3.745   7.051 -2.7336 -0.9415 -1.7441
 5020TIP3    H230728   0.516   3.658   6.927  1.6809 -1.8734 -1.0261
 5021TIP3   OH230729   0.067   4.991   2.177 -0.4318  0.1613 -0.3367
 5021TIP3    H130730  -0.013   4.939   2.175  0.0409 -0.5830 -1.7435
 5021TIP3    H230731   0.135   4.931   2.144  1.1921  0.0554  2.8362
 5022TIP3   OH230732   3.386   5.006   6.735  0.3503 -0.1126  0.3709
 5022TIP3    H130733   3.474   4.981   6.760  0.9362 -0.2160 -1.6530
 5022TIP3    H230734   3.398   5.070   6.665 -1.1648 -0.4941 -0.2794
 5023TIP3   OH230735   5.528   3.273   1.656 -0.1623  0.1305 -0.3593
 5023TIP3    H130736   5.514   3.367   1.663  0.5023  0.5016 -3.0584
 5023TIP3    H230737   5.494   3.250   1.569  0.3524 -2.0011 -0.0518
 5024TIP3   OH230738   0.003   5.903   7.575  0.1298  0.0487 -0.4153
 5024TIP3    H130739  -0.041   5.987   7.567  0.9216  0.6366  0.9776
 5024TIP3    H230740   0.093   5.925   7.600 -0.0815 -1.2233  1.7270
 5025TIP3   OH230741   0.964   5.285   7.290 -0.1647  0.4158  0.3236
 5025TIP3    H130742   1.041   5.229   7.299 -0.6326 -0.3813 -0.4381
 5025TIP3    H230743   0.891   5.224   7.282 -0.7789  1.1507  0.2724
 5026TIP3   OH230744   0.082   5.102   7.204  0.3223  0.1234  0.1590
 5026TIP3    H130745   0.075   5.069   7.115  1.1195 -1.3310  0.5985
 5026TIP3    H230746   0.032   5.184   7.204  0.0776  0.0012 -1.5301
 5027TIP3   OH230747   1.824   2.358   7.561  0.0215  0.5881  0.0735
 5027TIP3    H130748   1.738   2.340   7.523  0.5625 -0.4041 -0.7280
 5027TIP3    H230749   1.884   2.300   7.514  0.9839  0.5414  1.2915
 5028TIP3   OH230750   2.841   0.283   1.191 -0.1739 -0.2198  0.3592
 5028TIP3    H130751   2.799   0.351   1.138 -0.7622 -1.2587 -0.5254
 5028TIP3    H230752   2.914   0.329   1.234  0.5153  0.5939 -1.5780
 5029TIP3   OH230753   1.942   3.465   7.438 -0.2160 -0.3802  0.1227
 5029TIP3    H130754   1.848   3.462   7.456 -0.1071  1.3352  1.1858
 5029TIP3    H230755   1.982   3.493   7.521  1.2927 -1.4846 -0.1746
 5030TIP3   OH230756   3.308   0.891   0.852  0.3980 -0.0080  0.0472
 5030TIP3    H130757   3.298   0.979   0.889 -0.9445  0.0446 -0.3689
 5030TIP3    H230758   3.255   0.894   0.772  1.2086 -0.8768 -0.5329
 5031TIP3   OH230759   3.549   2.331   1.413 -0.0953  0.4578 -0.5028
 5031TIP3    H130760   3.515   2.268   1.349 -0.1204 -2.7753  2.4092
 5031TIP3    H230761   3.471   2.365   1.457 -0.0052 -1.3028  1.1616
 5032TIP3   OH230762   1.437   0.521   1.378  0.0461 -0.2097 -0.2622
 5032TIP3    H130763   1.530   0.539   1.387 -0.5863  4.4156 -0.6257
 5032TIP3    H230764   1.397   0.560   1.456 -1.6359 -2.8104  0.3037
 5033TIP3   OH230765   0.857   1.683   7.147  0.5085 -0.5935 -0.4249
 5033TIP3    H130766   0.916   1.658   7.219 -0.0070 -1.6249 -0.3343
 5033TIP3    H230767   0.841   1.601   7.100  0.2429 -0.0660 -1.2730
 5034TIP3   OH230768   0.511   0.542   1.617 -0.8611  0.1937 -0.3934
 5034TIP3    H130769   0.438   0.548   1.679 -1.2355 -0.0605 -0.8062
 5034TIP3    H230770   0.588   0.525   1.672 -1.2639 -0.5351 -0.0402
 5035TIP3   OH230771   1.066   6.134   7.752  0.0071 -0.0385  0.1454
 5035TIP3    H130772   1.012   6.106   7.678  1.4672  2.5941 -2.1456
 5035TIP3    H230773   1.146   6.083   7.744  0.6982  1.1501 -1.0184
 5036TIP3   OH230774   4.197   1.119   2.645  0.8232  0.4683  0.4907
 5036TIP3    H130775   4.165   1.186   2.706  2.3454  0.2448  1.6031
 5036TIP3    H230776   4.254   1.064   2.699 -0.1251 -1.5459 -0.4794
 5037TIP3   OH230777   5.749   3.188   1.852  0.8897 -0.3633 -0.4232
 5037TIP3    H130778   5.704   3.140   1.922  0.0852 -3.1749 -2.6700
 5037TIP3    H230779   5.678   3.222   1.798  1.4978  2.1236  0.2054
 5038TIP3   OH230780   5.618   6.233   6.968  0.4262  0.0097  0.6237
 5038TIP3    H130781   5.666   6.252   6.888  0.9063 -0.4374  0.7953
 5038TIP3    H230782   5.526   6.244   6.945  0.4530 -1.6171 -0.4320
 5039TIP3   OH230783   3.716   4.657   0.762 -0.1579  0.5119  0.1450
 5039TIP3    H130784   3.638   4.657   0.707 -0.1587  1.2250  0.1295
 5039TIP3    H230785   3.689   4.613   0.843 -0.3471  0.0650 -0.1567
 5040TIP3   OH230786   2.075   5.767   6.864 -0.2741 -0.0231 -0.7697
 5040TIP3    H130787   2.131   5.760   6.787 -0.6008  0.0664 -1.0142
 5040TIP3    H230788   2.050   5.860   6.868 -0.5284 -0.0925 -0.7467
 5041TIP3   OH230789   3.033   3.946   7.135  0.4620 -0.2524  0.1589
 5041TIP3    H130790   3.055   3.997   7.213  0.5294  1.1333 -0.7322
 5041TIP3    H230791   2.991   4.009   7.076 -0.6108 -1.5219 -0.4892
 5042TIP3   OH230792   2.053   2.070   1.124  0.0764  0.4539 -0.3116
 5042TIP3    H130793   2.145   2.075   1.100  0.4927 -1.9875  0.6131
 5042TIP3    H230794   2.044   2.129   1.199  1.1004 -0.0062  0.1843
 5043TIP3   OH230795   1.924   3.150   7.465 -0.3787  0.6645  0.5101
 5043TIP3    H130796   1.841   3.195   7.477  0.3897  2.0030  1.0693
 5043TIP3    H230797   1.965   3.151   7.552 -1.1995 -3.0465  1.0950
 5044TIP3   OH230798   4.677   1.302   6.072 -0.1578  0.3955 -0.2893
 5044TIP3    H130799   4.587   1.270   6.073  0.0669 -0.2586 -0.7627
 5044TIP3    H230800   4.683   1.356   5.993 -0.6556  1.9911  0.7234
 5045TIP3   OH230801   5.811   1.654   0.281 -0.1162  0.1877 -0.0713
 5045TIP3    H130802   5.846   1.646   0.369 -2.1727 -1.7850  0.6851
 5045TIP3    H230803   5.724   1.614   0.286 -0.0753 -0.5914 -3.1269
 5046TIP3   OH230804   3.613   0.749   7.713 -0.0775  0.0256 -0.2350
 5046TIP3    H130805   3.625   0.755   7.808  0.4879 -0.5277 -0.2692
 5046TIP3    H230806   3.702   0.737   7.679 -0.2566  0.4284 -0.8539
 5047TIP3   OH230807   0.473   0.071   1.205 -0.1543 -0.0921  0.2193
 5047TIP3    H130808   0.535   0.114   1.265 -0.3050  1.1599 -0.4833
 5047TIP3    H230809   0.503  -0.019   1.200  1.2808  0.3548  0.3224
 5048TIP3   OH230810   5.554   1.791   0.613 -0.1098  0.2580  0.5077
 5048TIP3    H130811   5.554   1.870   0.559 -0.3888 -0.0215  0.0894
 5048TIP3    H230812   5.633   1.744   0.586 -0.1579  0.2006  0.4666
 5049TIP3   OH230813   2.883   5.109   1.538 -0.4419  0.1641  0.3361
 5049TIP3    H130814   2.926   5.194   1.542  1.0368 -0.5627  1.0321
 5049TIP3    H230815   2.790   5.128   1.546 -0.2316  1.7763 -0.7153
 5050TIP3   OH230816   3.451   0.098   7.692 -0.3819  0.5756  0.6650
 5050TIP3    H130817   3.540   0.127   7.713 -0.0315 -0.6593  0.9483
 5050TIP3    H230818   3.417   0.166   7.634  1.8255 -0.3811 -1.9659
 5051TIP3   OH230819   0.317   5.505   6.870  0.1119 -0.0164 -0.1197
 5051TIP3    H130820   0.306   5.429   6.927 -0.6265  0.7278  0.7775
 5051TIP3    H230821   0.401   5.543   6.898  0.1737 -0.1502 -0.1249
 5052TIP3   OH230822   5.029   0.044   6.651  0.0714 -0.4077  0.2598
 5052TIP3    H130823   5.078   0.097   6.589 -1.0001 -1.0978 -1.2681
 5052TIP3    H230824   4.959   0.101   6.682  0.4134 -0.1626  0.5872
 5053TIP3   OH230825   5.024   0.177   0.127  0.1499 -0.0924 -0.4436
 5053TIP3    H130826   5.058   0.150   0.212 -1.7791  0.3731  0.5394
 5053TIP3    H230827   5.026   0.273   0.129  2.6531 -0.0037 -2.0885
 5054TIP3   OH230828   5.985   3.504   0.013  0.3546  0.7154 -0.5951
 5054TIP3    H130829   6.060   3.445   0.001  0.4932  0.6262  0.6347
 5054TIP3    H230830   5.923   3.477  -0.054  0.4343 -0.7964 -0.1033
 5055TIP3   OH230831   1.315   5.811   7.080 -0.3573 -0.3016 -0.3694
 5055TIP3    H130832   1.404   5.812   7.047 -0.4108 -0.0865 -0.5072
 5055TIP3    H230833   1.324   5.818   7.175 -0.2652  0.9049 -0.4492
 5056TIP3   OH230834   0.219   4.785   2.368 -0.4451 -0.0869 -0.1356
 5056TIP3    H130835   0.184   4.861   2.414  0.2497  0.4083 -0.4118
 5056TIP3    H230836   0.142   4.734   2.343 -0.8825  0.1544  0.6747
 5057TIP3   OH230837   1.549   3.850   7.518  0.4475 -1.2619 -0.8206
 5057TIP3    H130838   1.553   3.758   7.492 -0.7162 -1.1974 -1.2452
 5057TIP3    H230839   1.466   3.859   7.565  0.8812 -0.5780 -0.1539
 5058TIP3   OH230840   4.017   5.634   7.575  0.1373 -0.4982  0.1710
 5058TIP3    H130841   3.999   5.606   7.486  2.0154  0.1141 -0.4301
 5058TIP3    H230842   3.945   5.693   7.597 -0.6737 -1.1489 -0.6794
 5059TIP3   OH230843   3.269   1.971   0.016 -0.2473  0.4004  0.3663
 5059TIP3    H130844   3.213   1.915  -0.038  0.5906  1.1874 -1.4212
 5059TIP3    H230845   3.355   1.966  -0.026  0.2766  1.6127  1.2368
 5060TIP3   OH230846   6.058   6.200   6.984  0.0687 -0.2710 -0.3099
 5060TIP3    H130847   6.076   6.130   7.047 -0.9925  0.3319  0.7134
 5060TIP3    H230848   6.144   6.235   6.962  0.4538 -0.2039  1.1869
 5061TIP3   OH230849   3.472   3.320   1.931 -0.3039 -0.1613  0.7467
 5061TIP3    H130850   3.517   3.252   1.981  0.0906 -0.1940  0.3546
 5061TIP3    H230851   3.381   3.316   1.962 -0.8042 -2.2907 -0.7144
 5062TIP3   OH230852   0.856   4.655   1.076 -0.4536 -0.0861  0.0918
 5062TIP3    H130853   0.808   4.715   1.132  1.0591  3.2930 -1.8479
 5062TIP3    H230854   0.805   4.651   0.995 -0.5327 -1.4813  0.1889
 5063TIP3   OH230855   4.822   6.123   7.394 -0.6102 -0.0308 -0.3461
 5063TIP3    H130856   4.784   6.209   7.409 -1.0784 -0.5324  1.6854
 5063TIP3    H230857   4.758   6.077   7.339 -0.9166  0.5189 -0.4559
 5064TIP3   OH230858   5.906   5.741   1.491 -0.0321  0.4633  0.0083
 5064TIP3    H130859   5.888   5.698   1.408 -0.7393  2.1231 -0.7294
 5064TIP3    H230860   5.904   5.834   1.472  0.4195  0.8824  1.7699
 5065TIP3   OH230861   3.426   4.378   0.565  0.2663 -0.0732 -0.2887
 5065TIP3    H130862   3.364   4.349   0.498 -0.6236 -0.5580  0.7227
 5065TIP3    H230863   3.384   4.355   0.648  0.6092  1.9565  0.4937
 5066TIP3   OH230864   5.996   2.401   0.766  0.5350 -0.1817  0.2074
 5066TIP3    H130865   6.003   2.374   0.674  1.1965 -1.4606  0.6089
 5066TIP3    H230866   5.992   2.497   0.762 -3.3261 -0.2490 -1.3651
 5067TIP3   OH230867   2.975   0.567   2.328  0.3054 -0.3158  0.7523
 5067TIP3    H130868   2.949   0.490   2.379 -1.4108  0.1724  0.6798
 5067TIP3    H230869   2.898   0.624   2.331  1.6618  1.5769  1.1120
 5068TIP3   OH230870   1.750   1.297   2.106  0.2019  0.5210  0.0822
 5068TIP3    H130871   1.736   1.261   2.194  0.1867  0.3745  0.0203
 5068TIP3    H230872   1.828   1.251   2.074  1.4409  2.0083  0.7936
 5069TIP3   OH230873   1.417   4.153   1.435 -0.0715 -0.6118  0.3259
 5069TIP3    H130874   1.337   4.155   1.383 -0.1224  1.4641  0.3997
 5069TIP3    H230875   1.488   4.140   1.372 -0.3441 -0.7804  0.0594
 5070TIP3   OH230876   3.691   4.327   0.479 -0.3817 -0.0354  1.0024
 5070TIP3    H130877   3.646   4.315   0.396  0.7475  3.5983 -0.3354
 5070TIP3    H230878   3.621   4.347   0.542 -1.0195  1.4596 -0.1165
 5071TIP3   OH230879   1.197   4.293   7.066  0.6112 -0.1138 -1.1110
 5071TIP3    H130880   1.225   4.201   7.072  1.6907  0.3035  0.9228
 5071TIP3    H230881   1.274   4.340   7.035  1.4904  0.6333  1.8503
 5072TIP3   OH230882   3.152   5.783   7.057 -0.0023  0.5779 -0.0903
 5072TIP3    H130883   3.211   5.784   7.133  0.5387 -0.6629 -0.4567
 5072TIP3    H230884   3.068   5.752   7.092  0.5379 -1.0748 -0.1435
 5073TIP3   OH230885   0.194   1.039   0.939 -0.4615 -0.3274  0.1605
 5073TIP3    H130886   0.187   0.950   0.973  1.0249 -0.1122  1.1104
 5073TIP3    H230887   0.288   1.059   0.942 -0.5650  0.6571 -1.6720
 5074TIP3   OH230888   5.749   4.451   0.474  0.0077 -0.1999  0.2259
 5074TIP3    H130889   5.721   4.459   0.566  0.2426 -0.0652  0.2881
 5074TIP3    H230890   5.765   4.358   0.462  1.6753 -0.0412  0.8439
 5075TIP3   OH230891   5.999   0.022   6.560  0.3045 -0.2014 -0.0179
 5075TIP3    H130892   5.929   0.018   6.495  0.7955  0.9406 -0.6616
 5075TIP3    H230893   6.058  -0.049   6.536 -0.2788 -0.7325  0.1067
 5076TIP3   OH230894   1.596   4.349   6.587 -0.7449  0.2471 -0.3229
 5076TIP3    H130895   1.545   4.394   6.519 -0.1132 -0.0870 -1.0464
 5076TIP3    H230896   1.648   4.284   6.538 -0.1619  0.1023  0.4702
 5077TIP3   OH230897   6.307   1.435   0.031 -0.3065  0.1181 -0.0278
 5077TIP3    H130898   6.219   1.420  -0.002  0.5912 -2.1309 -1.5824
 5077TIP3    H230899   6.335   1.517  -0.010 -0.8855 -0.2817 -1.2428
 5078TIP3   OH230900   4.432   0.200   2.236  0.4089 -0.0522 -0.2943
 5078TIP3    H130901   4.434   0.121   2.290  1.0604 -0.8212 -1.3865
 5078TIP3    H230902   4.523   0.212   2.208  0.2296  0.8026 -0.5478
 5079TIP3   OH230903   4.071   0.300   7.654  0.5162 -0.5336 -0.4057
 5079TIP3    H130904   4.036   0.277   7.740 -1.4486  2.9221 -0.1214
 5079TIP3    H230905   3.998   0.287   7.594  0.5549  1.0082 -0.8211
 5080TIP3   OH230906   1.055   1.919   1.266 -0.4445  0.1856 -0.3394
 5080TIP3    H130907   1.119   1.936   1.198  0.0077  0.4460  0.1442
 5080TIP3    H230908   0.973   1.903   1.219  0.2494 -1.5471 -1.0511
 5081TIP3   OH230909   4.084   0.649   2.039 -0.1812  0.6055  0.0403
 5081TIP3    H130910   4.011   0.620   2.093  0.8699 -3.1099 -0.2489
 5081TIP3    H230911   4.159   0.651   2.099  0.3689 -0.4486 -0.5693
 5082TIP3   OH230912   0.441   4.139   2.648 -0.1634 -0.4311  0.0698
 5082TIP3    H130913   0.500   4.164   2.719 -2.4708 -0.5954  2.1348
 5082TIP3    H230914   0.483   4.062   2.609  1.2239 -0.2654  1.1372
 5083TIP3   OH230915   0.337   4.200   6.654 -0.6774 -0.2416  0.7088
 5083TIP3    H130916   0.409   4.190   6.716  1.1877  0.1091 -1.2938
 5083TIP3    H230917   0.264   4.152   6.694  0.4027  0.0507  3.1749
 5084TIP3   OH230918   2.852   6.031   7.572  0.1092  0.1854 -0.1993
 5084TIP3    H130919   2.909   6.028   7.649 -0.2092  1.1643  0.1017
 5084TIP3    H230920   2.897   5.980   7.506  0.5799 -0.3492  0.5240
 5085TIP3   OH230921   4.009   2.326   6.671 -0.4224 -0.0377  0.1523
 5085TIP3    H130922   3.995   2.343   6.764 -1.8556 -0.1667 -0.0190
 5085TIP3    H230923   3.963   2.244   6.654 -0.8214  0.3717 -0.8291
 5086TIP3   OH230924   2.933   0.851   0.943  0.1098 -0.2862  0.2505
 5086TIP3    H130925   3.002   0.820   1.001  0.5782  2.8114  1.5379
 5086TIP3    H230926   2.968   0.837   0.855  1.6308 -0.4123  0.8428
 5087TIP3   OH230927   4.565   4.024   1.438 -0.4227 -0.1676 -0.6509
 5087TIP3    H130928   4.595   4.021   1.348  0.9782 -1.2222 -0.1827
 5087TIP3    H230929   4.531   4.113   1.449  4.9135  2.2348 -0.5778
 5088TIP3   OH230930   2.947   2.966   2.013  0.2181  0.1838  0.1212
 5088TIP3    H130931   2.934   2.968   2.108 -0.0915  0.0213  0.0823
 5088TIP3    H230932   2.867   3.004   1.977  0.0183 -0.4358 -0.1011
 5089TIP3   OH230933   6.122   0.686   6.802  0.0684  0.1056 -0.2103
 5089TIP3    H130934   6.145   0.734   6.882  4.5142 -0.7504 -0.6841
 5089TIP3    H230935   6.087   0.602   6.834  1.1288  0.0423  0.8743
 5090TIP3   OH230936   3.819   5.362   0.707  0.6305  0.2157  0.1291
 5090TIP3    H130937   3.735   5.323   0.731  0.3444  0.1428 -0.9341
 5090TIP3    H230938   3.842   5.417   0.781 -0.3275  0.1814  0.4648
 5091TIP3   OH230939   4.628   2.340   7.438  0.0252  0.0063  0.7172
 5091TIP3    H130940   4.708   2.307   7.480  1.8277  0.1827 -2.3141
 5091TIP3    H230941   4.658   2.413   7.385 -2.0755 -0.2265 -0.8993
 5092TIP3   OH230942   4.741   2.048   7.039  0.4725  0.3010 -0.1946
 5092TIP3    H130943   4.760   1.954   7.044 -1.6483 -0.1384  0.3998
 5092TIP3    H230944   4.690   2.067   7.117  1.5377  2.1631  0.1195
 5093TIP3   OH230945   4.027   1.423   2.243 -0.6081  0.0138 -0.3740
 5093TIP3    H130946   4.019   1.368   2.321  1.9870 -0.6716 -0.5112
 5093TIP3    H230947   4.068   1.366   2.178  1.2105  1.7661 -0.8613
 5094TIP3   OH230948   0.055   4.720   1.099  0.3037 -0.2982 -0.1496
 5094TIP3    H130949   0.028   4.728   1.190 -0.3955 -2.3038 -0.1415
 5094TIP3    H230950   0.148   4.741   1.099 -0.1082  1.7652  0.6571
 5095TIP3   OH230951   5.943   0.277   2.139  0.2857 -0.0049 -0.2477
 5095TIP3    H130952   5.977   0.362   2.110  1.0690 -0.3146 -0.2496
 5095TIP3    H230953   5.892   0.298   2.218 -0.2648  0.5782 -0.7428
 5096TIP3   OH230954   0.914   4.157   0.023 -0.2915 -0.0103  0.0103
 5096TIP3    H130955   0.913   4.191  -0.066 -0.6593 -0.3652 -0.1232
 5096TIP3    H230956   0.980   4.210   0.068 -1.5679  1.6015  0.0817
 5097TIP3   OH230957   4.987   3.471   7.539  0.1006  0.5509 -0.0054
 5097TIP3    H130958   4.948   3.451   7.624  0.2251  1.0775  0.1792
 5097TIP3    H230959   5.057   3.406   7.529  0.0973  0.4967  0.3043
 5098TIP3   OH230960   2.130   2.531   0.785  0.9037 -0.1014  0.3534
 5098TIP3    H130961   2.046   2.540   0.829 -0.2795 -2.8305 -1.0811
 5098TIP3    H230962   2.108   2.534   0.691  2.4391 -0.4861 -0.0534
 5099TIP3   OH230963   1.731   2.716   0.679  0.1231  0.5948 -1.1642
 5099TIP3    H130964   1.636   2.723   0.692 -0.2455 -3.3918 -0.1597
 5099TIP3    H230965   1.741   2.674   0.594  0.4301 -3.7154  0.7083
 5100TIP3   OH230966   1.051   4.365   2.176  0.2958 -0.2549  0.0946
 5100TIP3    H130967   0.977   4.425   2.185  1.6091  1.4227  0.1689
 5100TIP3    H230968   1.051   4.314   2.257 -0.4905  0.0464  0.2884
 5101TIP3   OH230969   2.513   5.490   2.465  0.3008  0.4107  0.2154
 5101TIP3    H130970   2.539   5.581   2.477 -1.2467  0.9417 -0.2080
 5101TIP3    H230971   2.499   5.457   2.554 -0.8212  1.1355  0.3309
 5102TIP3   OH230972   4.022   3.918   1.531  0.2405  0.2532 -0.1562
 5102TIP3    H130973   3.930   3.914   1.505  0.4667 -0.9599 -0.8326
 5102TIP3    H230974   4.056   3.831   1.512  1.3289  0.4229  0.8799
 5103TIP3   OH230975   5.347   5.803   1.912  0.0784  0.2666  0.5350
 5103TIP3    H130976   5.300   5.827   1.992  0.1579  0.3344  0.5616
 5103TIP3    H230977   5.356   5.708   1.916  1.9363  0.4516  1.6417
 5104TIP3   OH230978   3.094   2.949   7.524  0.2683  0.1476 -0.3216
 5104TIP3    H130979   3.045   3.020   7.566  0.4552  1.0667 -1.5893
 5104TIP3    H230980   3.152   2.916   7.592  0.5435  1.5691  0.1585
 5105TIP3   OH230981   4.802   1.593   0.189 -0.0036 -0.0506 -0.0972
 5105TIP3    H130982   4.768   1.652   0.257  0.5556 -1.3238  1.3613
 5105TIP3    H230983   4.889   1.569   0.219  0.1464 -0.8818 -1.1237
 5106TIP3   OH230984   3.699   2.818   1.933 -0.4539 -0.0698 -0.0567
 5106TIP3    H130985   3.679   2.760   2.007 -0.8143 -0.2313 -0.2737
 5106TIP3    H230986   3.779   2.863   1.959  1.7012 -2.9340 -1.1276
 5107TIP3   OH230987   2.782   2.413   0.007 -0.2899 -0.2115 -0.7235
 5107TIP3    H130988   2.800   2.451  -0.079  0.3210  0.5621 -0.2638
 5107TIP3    H230989   2.868   2.408   0.050 -0.2361 -2.5993 -0.9452
 5108TIP3   OH230990   4.044   6.269   1.585 -0.7352  0.2017 -0.1025
 5108TIP3    H130991   4.057   6.206   1.514 -2.7636  1.1436 -1.3954
 5108TIP3    H230992   3.984   6.224   1.646  0.3536 -0.2934  0.6272
 5109TIP3   OH230993   2.692   3.422   1.125 -0.1421 -0.0278 -0.0889
 5109TIP3    H130994   2.663   3.341   1.083 -1.5941  0.2416  0.3420
 5109TIP3    H230995   2.784   3.406   1.146 -0.1148 -1.1598 -0.9631
 5110TIP3   OH230996   4.780   1.641   0.751  0.4159  0.2428 -0.3444
 5110TIP3    H130997   4.692   1.648   0.787  0.7218 -1.4689  0.8520
 5110TIP3    H230998   4.835   1.620   0.826  1.4456 -1.1128 -1.4182
 5111TIP3   OH230999   3.579   4.178   0.291 -0.7517 -0.1043  0.6482
 5111TIP3    H131000   3.641   4.168   0.220 -0.3657 -0.0764  0.9777
 5111TIP3    H231001   3.496   4.146   0.255 -0.5709 -0.0496  0.1773
 5112TIP3   OH231002   3.367   1.853   1.079  0.4492  0.1147  0.2658
 5112TIP3    H131003   3.282   1.897   1.084 -0.0757 -0.6161 -1.4878
 5112TIP3    H231004   3.377   1.812   1.165 -0.5150  1.0365  0.8401
 5113TIP3   OH231005   2.009   2.253   1.342  0.1247  0.4357 -0.3322
 5113TIP3    H131006   1.996   2.336   1.297  0.5798  0.3367 -0.6546
 5113TIP3    H231007   2.013   2.276   1.435  1.1407  0.8872 -0.4760
 5114TIP3   OH231008   0.667   4.847   1.925  0.2562  0.0206  0.5476
 5114TIP3    H131009   0.760   4.829   1.938  0.0072 -1.5192  0.3623
 5114TIP3    H231010   0.634   4.869   2.012  0.9924  1.6479  0.4352
 5115TIP3   OH231011   1.389   1.778   7.039 -0.4349 -0.0576 -0.4107
 5115TIP3    H131012   1.354   1.737   7.118 -1.2482  0.8969 -0.2671
 5115TIP3    H231013   1.463   1.830   7.070 -1.2751  0.9948 -0.1406
 5116TIP3   OH231014   3.054   1.494   7.200  0.1544  0.3472 -0.2410
 5116TIP3    H131015   3.001   1.531   7.130 -0.1223  0.0176 -0.2092
 5116TIP3    H231016   3.100   1.420   7.159 -1.4626 -1.0581  0.3595
 5117TIP3   OH231017   1.756   2.920   2.022  0.1826  0.0596 -0.0563
 5117TIP3    H131018   1.807   2.847   2.058  0.0031 -0.2952 -0.5059
 5117TIP3    H231019   1.822   2.980   1.987  0.3255  0.0090  0.1252
 5118TIP3   OH231020   3.245   1.972   0.317  0.1401 -0.4411 -0.4442
 5118TIP3    H131021   3.316   2.009   0.369 -0.4603  0.7801 -0.4693
 5118TIP3    H231022   3.278   1.972   0.227  0.2383 -0.2003 -0.4077
 5119TIP3   OH231023   5.718   4.040   2.796 -0.4886  0.0753 -0.0297
 5119TIP3    H131024   5.631   4.004   2.779  0.6353 -2.0271 -1.7826
 5119TIP3    H231025   5.775   3.963   2.805  1.5788  1.3729 -1.2079
 5120TIP3   OH231026   0.411   5.709   6.352  0.2820 -0.9006 -0.5910
 5120TIP3    H131027   0.384   5.706   6.444 -0.8954 -1.9397 -0.9513
 5120TIP3    H231028   0.423   5.803   6.334  0.1972 -0.6609  0.5268
 5121TIP3   OH231029   2.863   2.577   2.378  0.4647  0.0011  0.3671
 5121TIP3    H131030   2.912   2.649   2.418  0.6611 -1.1409  2.3481
 5121TIP3    H231031   2.776   2.583   2.416  1.0519 -1.9498  2.2094
 5122TIP3   OH231032   1.362   1.064   0.054 -0.1956  0.1030 -0.0385
 5122TIP3    H131033   1.363   0.972   0.028 -1.3499 -0.0911  0.5053
 5122TIP3    H231034   1.339   1.062   0.147  0.4315  0.9132  0.1430
 5123TIP3   OH231035   0.688   0.626   1.387 -0.0478 -0.1591 -0.4796
 5123TIP3    H131036   0.599   0.649   1.415 -0.1636 -0.8639 -0.2409
 5123TIP3    H231037   0.745   0.685   1.437 -0.3088 -0.6493  0.4218
 5124TIP3   OH231038   1.935   2.571   7.203  0.2025  0.3688  0.0614
 5124TIP3    H131039   1.846   2.597   7.182  0.4094  1.9965  1.0136
 5124TIP3    H231040   1.927   2.482   7.239 -0.9114  0.2018 -0.5688
 5125TIP3   OH231041   0.898   6.033   7.508  0.2677 -0.3512  0.3823
 5125TIP3    H131042   0.904   5.965   7.440 -3.2842 -0.1182 -0.3592
 5125TIP3    H231043   0.910   6.115   7.461  0.2183 -0.2927  0.4714
 5126TIP3   OH231044   6.156   1.787   7.318 -0.2095  0.1911 -0.4279
 5126TIP3    H131045   6.088   1.791   7.386  0.8141 -0.7389  0.7030
 5126TIP3    H231046   6.115   1.827   7.241 -1.2108  1.8224  0.8814
 5127TIP3   OH231047   3.609   5.738   1.478 -0.5437 -0.1975 -1.0286
 5127TIP3    H131048   3.550   5.800   1.521 -0.8767  0.2780 -2.1175
 5127TIP3    H231049   3.554   5.663   1.456  0.0803 -1.3649  1.1959
 5128TIP3   OH231050   5.502   2.061   2.287 -0.1409 -0.2085 -0.3513
 5128TIP3    H131051   5.453   2.101   2.359 -0.5765  0.1753 -0.8528
 5128TIP3    H231052   5.572   2.013   2.330  0.4415  1.1431  0.2821
 5129TIP3   OH231053   3.715   1.618   1.356 -0.3543  0.8842  0.5164
 5129TIP3    H131054   3.674   1.641   1.273  0.9707 -0.5500 -0.5963
 5129TIP3    H231055   3.809   1.627   1.340 -0.0126 -0.6563  1.4241
 5130TIP3   OH231056   3.986   5.331   7.614 -0.2620  0.3775 -0.1619
 5130TIP3    H131057   4.001   5.425   7.624  0.2407  0.2062  0.7382
 5130TIP3    H231058   3.921   5.325   7.544  0.2610  1.3545 -0.7529
 5131TIP3   OH231059   4.527   4.233   0.307 -0.2957 -0.3571 -0.2170
 5131TIP3    H131060   4.474   4.267   0.379  1.1929 -0.7188  1.1078
 5131TIP3    H231061   4.512   4.139   0.308  0.4202 -0.4783  0.2446
 5132TIP3   OH231062   2.673   5.600   0.120  0.6653  0.2222  0.8497
 5132TIP3    H131063   2.664   5.695   0.109  0.5972  0.0681 -0.6617
 5132TIP3    H231064   2.757   5.589   0.165  1.5655  0.9470 -0.5634
 5133TIP3   OH231065   3.865   2.003   1.025 -0.0367  0.1950 -0.5709
 5133TIP3    H131066   3.912   2.050   1.094 -0.5520  1.0494 -0.7904
 5133TIP3    H231067   3.921   1.928   1.006 -0.1817 -0.4335  1.2231
 5134TIP3   OH231068   1.419   0.532   0.845  0.6235 -0.4106  0.2138
 5134TIP3    H131069   1.354   0.559   0.780 -0.1034  1.9434  1.7870
 5134TIP3    H231070   1.375   0.464   0.896 -0.2097  0.3104  0.4918
 5135TIP3   OH231071   0.749   1.484   0.212  0.1505  0.0979  0.0861
 5135TIP3    H131072   0.755   1.564   0.264  1.1230 -0.2358  0.4942
 5135TIP3    H231073   0.662   1.449   0.233  0.8672 -0.5319  2.2255
 5136TIP3   OH231074   0.977   1.206   7.097 -0.5124 -0.1586 -0.1936
 5136TIP3    H131075   1.036   1.158   7.039  0.3263  0.8882 -0.2280
 5136TIP3    H231076   1.016   1.197   7.184 -0.3934  0.3907 -0.1888
 5137TIP3   OH231077   1.145   0.078   7.718  0.4668  0.0157 -0.1243
 5137TIP3    H131078   1.106  -0.010   7.714  0.3195  0.0246  0.8587
 5137TIP3    H231079   1.195   0.077   7.800  1.0151  0.6253 -0.4514
 5138TIP3   OH231080   1.307   2.007   7.594  0.1660 -0.1220  0.0251
 5138TIP3    H131081   1.304   1.915   7.569 -1.9552 -0.4233  1.1632
 5138TIP3    H231082   1.291   2.054   7.512  0.7396 -0.7617 -0.4711
 5139TIP3   OH231083   5.322   5.109   7.535  0.7230 -0.0480  0.2530
 5139TIP3    H131084   5.244   5.093   7.588 -0.2313 -1.7947 -1.5999
 5139TIP3    H231085   5.329   5.205   7.533 -1.3759  0.1609  0.4401
 5140TIP3   OH231086   5.209   2.862   5.809  0.1120  0.1211  0.4057
 5140TIP3    H131087   5.174   2.781   5.773  0.3499  0.7485 -1.3022
 5140TIP3    H231088   5.304   2.854   5.798  0.2350  0.1145  1.3790
 5141TIP3   OH231089   5.682   4.555   0.832 -0.1219  0.1865 -0.0427
 5141TIP3    H131090   5.689   4.527   0.924  1.3908  1.6779  0.3414
 5141TIP3    H231091   5.738   4.494   0.784 -1.9128 -1.4019 -0.2189
 5142TIP3   OH231092   0.361   5.913   1.333 -0.1530 -0.0108 -0.3102
 5142TIP3    H131093   0.412   5.990   1.307  0.0432 -0.3722 -1.0366
 5142TIP3    H231094   0.289   5.909   1.269 -0.6135  0.0186  0.2009
 5143TIP3   OH231095   0.532   3.272   1.675 -0.7609  0.5276  0.0048
 5143TIP3    H131096   0.591   3.337   1.639 -0.3793  0.0164 -0.3117
 5143TIP3    H231097   0.553   3.268   1.768  1.3420 -1.2793 -0.4624
 5144TIP3   OH231098   4.304   3.246   1.307  0.2768  0.4474  0.3260
 5144TIP3    H131099   4.257   3.279   1.230  1.5676 -0.6162 -0.9741
 5144TIP3    H231100   4.240   3.189   1.351  0.2620 -0.8948 -1.3477
 5145TIP3   OH231101   2.423   2.468   6.843  0.3727  0.0537 -0.2943
 5145TIP3    H131102   2.491   2.495   6.904  0.8725 -0.2177 -0.7196
 5145TIP3    H231103   2.462   2.396   6.794 -0.2170 -0.0937 -0.5574
 5146TIP3   OH231104   2.669   2.046   1.508 -0.5846  0.4107 -0.2622
 5146TIP3    H131105   2.718   2.002   1.577 -1.4834  0.3361  0.3558
 5146TIP3    H231106   2.695   2.138   1.515 -2.2200  0.8133  1.6361
 5147TIP3   OH231107   2.893   4.601   1.301  0.2583  0.0156 -0.4852
 5147TIP3    H131108   2.819   4.552   1.265 -1.4419  1.5854  0.6716
 5147TIP3    H231109   2.914   4.666   1.234 -0.2702  0.3872 -0.2931
 5148TIP3   OH231110   5.254   1.933   0.233 -0.3138  0.1312  0.0352
 5148TIP3    H131111   5.346   1.948   0.209 -0.3254 -0.2592 -0.2560
 5148TIP3    H231112   5.210   2.016   0.213  0.3224  0.9788  1.9409
 5149TIP3   OH231113   3.466   4.693   0.613  0.5645  0.0810  0.2760
 5149TIP3    H131114   3.403   4.709   0.684  0.1881  0.9995 -0.2524
 5149TIP3    H231115   3.433   4.613   0.571  1.7099 -1.4460  2.1011
 5150TIP3   OH231116   5.063   2.597   5.668 -0.0131  0.5392  0.4166
 5150TIP3    H131117   5.098   2.555   5.589 -1.8915  0.4352 -0.4161
 5150TIP3    H231118   5.110   2.556   5.740  0.2555 -0.9206 -0.5493
 5151TIP3   OH231119   4.360   0.195   5.991  0.0622 -0.5262  0.4109
 5151TIP3    H131120   4.428   0.154   6.044 -1.5289 -2.0922  1.3319
 5151TIP3    H231121   4.292   0.129   5.983 -1.0637  0.7326 -1.0950
 5152TIP3   OH231122   4.707   3.257   0.677  1.0230 -0.0528  0.3715
 5152TIP3    H131123   4.657   3.177   0.659  1.6883 -0.2224 -0.8465
 5152TIP3    H231124   4.797   3.235   0.652  1.1405  1.1949 -0.3956
 5153TIP3   OH231125   1.978   4.878   7.680 -0.0725 -0.0310  0.4498
 5153TIP3    H131126   1.939   4.793   7.701  0.4052 -0.2184  0.5894
 5153TIP3    H231127   2.020   4.865   7.595  1.6471 -0.4974  1.3311
 5154TIP3   OH231128   4.226   3.549   2.441 -0.5529  0.2140 -0.0174
 5154TIP3    H131129   4.271   3.469   2.466  2.4156  2.0875  1.2536
 5154TIP3    H231130   4.136   3.536   2.468 -0.4824 -3.0581 -0.9323
 5155TIP3   OH231131   0.013   5.624   1.915  0.1434 -0.2441  0.2433
 5155TIP3    H131132   0.009   5.715   1.945 -1.6515 -0.6870  1.5228
 5155TIP3    H231133   0.088   5.586   1.960 -0.9984 -0.2083  2.2655
 5156TIP3   OH231134   2.136   3.628   6.711 -0.2651 -0.6570 -0.1451
 5156TIP3    H131135   2.162   3.718   6.697  0.7994 -1.0765 -0.9778
 5156TIP3    H231136   2.042   3.633   6.727 -0.4403  0.4953 -1.3385
 5157TIP3   OH231137   5.182   4.470   1.713 -0.3783  0.1399 -0.4239
 5157TIP3    H131138   5.246   4.420   1.763 -1.4698 -0.2204  0.6395
 5157TIP3    H231139   5.146   4.408   1.650  1.7150  0.8260 -2.4884
 5158TIP3   OH231140   1.160   3.391   6.027 -0.4501  0.0098 -0.1712
 5158TIP3    H131141   1.141   3.410   6.118  0.6647  1.1175 -0.1450
 5158TIP3    H231142   1.075   3.391   5.983 -0.9511 -0.1500  0.7819
 5159TIP3   OH231143   2.405   5.254   1.409  0.2797 -0.0235  0.2045
 5159TIP3    H131144   2.459   5.229   1.333 -1.8590 -0.3451 -1.2953
 5159TIP3    H231145   2.388   5.347   1.397  0.2105  0.0020  0.4928
 5160TIP3   OH231146   2.988   5.814   0.195  0.8815  0.3418  0.6281
 5160TIP3    H131147   3.045   5.770   0.258 -2.0406 -0.6535  2.8116
 5160TIP3    H231148   2.979   5.751   0.124  1.5035  0.0054  0.8320
 5161TIP3   OH231149   0.747   5.307   1.325 -0.4171 -0.4000 -0.1678
 5161TIP3    H131150   0.753   5.266   1.411 -0.1912  0.9001  0.4706
 5161TIP3    H231151   0.825   5.275   1.278  0.8747  0.8209  1.0326
 5162TIP3   OH231152   4.837   1.030   0.201 -0.0108  0.7931  0.0797
 5162TIP3    H131153   4.884   1.070   0.128  0.1246 -0.3438 -0.4874
 5162TIP3    H231154   4.893   0.958   0.229 -0.7345  0.3288  0.3598
 5163TIP3   OH231155   4.300   3.715   0.362 -0.1538 -0.1970  0.8762
 5163TIP3    H131156   4.316   3.655   0.435 -2.1917 -0.5718  1.0592
 5163TIP3    H231157   4.268   3.659   0.292  0.0365  0.4104  0.3015
 5164TIP3   OH231158   4.732   5.406   1.167  0.5381 -0.3722  0.1931
 5164TIP3    H131159   4.662   5.463   1.197  0.5510  0.2555 -0.8921
 5164TIP3    H231160   4.694   5.319   1.167 -0.1479 -0.0855 -0.0500
 5165TIP3   OH231161   1.205   1.220   1.787  0.0322  0.0080 -0.0700
 5165TIP3    H131162   1.123   1.206   1.835  0.9419  0.4319  1.6721
 5165TIP3    H231163   1.250   1.290   1.834  0.8024  0.7661 -1.8153
 5166TIP3   OH231164   4.554   0.889   5.742 -0.1529 -0.2002 -0.2181
 5166TIP3    H131165   4.483   0.916   5.801 -0.9523  0.3378 -1.3886
 5166TIP3    H231166   4.570   0.797   5.764 -0.3136  0.0394  0.9453
 5167TIP3   OH231167   4.507   4.943   0.787 -0.2680  0.0255 -0.3235
 5167TIP3    H131168   4.461   4.923   0.869 -2.0276  0.1363 -1.2355
 5167TIP3    H231169   4.492   4.866   0.732 -0.9809  0.8440 -1.3021
 5168TIP3   OH231170   4.187   5.051   1.238 -0.2887 -0.1861 -0.4257
 5168TIP3    H131171   4.104   5.059   1.190 -0.1332 -0.2993 -0.7182
 5168TIP3    H231172   4.222   4.966   1.210 -0.4211 -0.4627  0.2467
 5169TIP3   OH231173   5.325   2.075   7.035 -0.3120 -0.0185 -0.3214
 5169TIP3    H131174   5.390   2.145   7.041  0.0691 -0.1625 -2.1831
 5169TIP3    H231175   5.345   2.018   7.109  0.6660  0.7632  0.0471
 5170TIP3   OH231176   5.249   0.847   1.986 -0.1026 -0.5583 -0.0749
 5170TIP3    H131177   5.231   0.838   2.080 -1.0878  1.0744 -0.0738
 5170TIP3    H231178   5.326   0.904   1.982 -0.9037  0.5280 -0.2678
 5171TIP3   OH231179   2.314   5.162   2.780 -0.3263  0.0291 -0.6298
 5171TIP3    H131180   2.246   5.129   2.837  0.7613  0.4002  0.9413
 5171TIP3    H231181   2.394   5.118   2.809  0.4699  1.1584 -1.0232
 5172TIP3   OH231182   0.176   4.239   2.512  0.5891  0.0993  0.0383
 5172TIP3    H131183   0.230   4.248   2.433 -0.4944  0.5712 -0.6686
 5172TIP3    H231184   0.225   4.177   2.567  0.4744 -1.7599 -1.8037
 5173TIP3   OH231185   1.469   3.738   6.574  0.8453 -0.5628 -0.1515
 5173TIP3    H131186   1.563   3.717   6.579  0.1508 -4.0584  0.7946
 5173TIP3    H231187   1.442   3.703   6.489  0.6009  2.0968 -1.2978
 5174TIP3   OH231188   4.234   2.743   1.628  0.1184  0.1710  0.2887
 5174TIP3    H131189   4.266   2.767   1.541 -2.2342  0.8064 -0.4973
 5174TIP3    H231190   4.221   2.826   1.673 -0.1510 -0.0737  0.6717
 5175TIP3   OH231191   5.374   0.237   0.324  0.0908 -0.8595 -0.6190
 5175TIP3    H131192   5.424   0.204   0.250  0.5176 -0.2110 -0.6220
 5175TIP3    H231193   5.439   0.271   0.385 -0.3772  1.5512 -1.3618
 5176TIP3   OH231194   1.874   3.320   0.451 -0.2080 -0.6507 -0.1209
 5176TIP3    H131195   1.844   3.405   0.420  2.2479  0.3684  0.0775
 5176TIP3    H231196   1.798   3.282   0.494 -1.7050  0.9014 -1.2811
 5177TIP3   OH231197   0.331   1.779   7.095  0.1128  0.4253  0.1081
 5177TIP3    H131198   0.380   1.804   7.173 -1.4994 -2.0584  2.1244
 5177TIP3    H231199   0.252   1.833   7.098  0.0088  0.2663  0.2697
 5178TIP3   OH231200   3.355   1.969   2.900 -0.0706 -0.2331 -0.4254
 5178TIP3    H131201   3.367   1.991   2.993  1.1709 -2.5412  0.0241
 5178TIP3    H231202   3.401   2.039   2.854  1.5118 -0.3860  0.8173
 5179TIP3   OH231203   4.852   3.613   0.618 -0.0401 -1.0440  0.3634
 5179TIP3    H131204   4.781   3.577   0.563  0.3388  0.8368 -1.4631
 5179TIP3    H231205   4.908   3.537   0.636 -0.7247 -1.9172 -0.9973
 5180TIP3   OH231206   6.033   2.789   7.093  0.3534  0.1268  0.2709
 5180TIP3    H131207   6.108   2.785   7.153 -0.8491  1.5534  1.9815
 5180TIP3    H231208   5.981   2.863   7.125 -1.5316 -0.4996 -1.1732
 5181TIP3   OH231209   1.214   0.085   6.734  0.2376 -0.0815 -0.0956
 5181TIP3    H131210   1.129   0.128   6.735  0.0303 -0.4757 -0.3097
 5181TIP3    H231211   1.230   0.062   6.826  0.4797  0.6956  0.0571
 5182TIP3   OH231212   3.637   1.324   1.183 -0.0425 -0.2191 -0.1696
 5182TIP3    H131213   3.657   1.236   1.152  0.4545  0.3460 -1.5111
 5182TIP3    H231214   3.692   1.336   1.261 -1.2466 -1.6311  0.9540
 5183TIP3   OH231215   4.849   3.747   7.158  0.2993 -0.1479  0.0954
 5183TIP3    H131216   4.886   3.670   7.116  0.1739 -0.1738  0.0331
 5183TIP3    H231217   4.906   3.763   7.234  0.5351 -0.0923 -0.0903
 5184TIP3   OH231218   0.538   0.985   0.603  0.0120  0.5519  0.3269
 5184TIP3    H131219   0.510   0.974   0.512  2.3859  0.6200 -0.4651
 5184TIP3    H231220   0.529   1.078   0.621 -1.4330  0.3971  0.5464
 5185TIP3   OH231221   0.157   4.383   7.023 -0.3410 -0.1243 -0.4692
 5185TIP3    H131222   0.163   4.377   6.928  1.5115 -0.7172 -0.3605
 5185TIP3    H231223   0.151   4.292   7.053 -0.3385  0.0270  0.0018
 5186TIP3   OH231224   2.925   0.271   7.390 -0.4934 -0.2736  0.5825
 5186TIP3    H131225   2.899   0.181   7.370 -0.2312 -0.2842  0.2794
 5186TIP3    H231226   2.854   0.305   7.445 -0.4489 -0.7571  0.9416
 5187TIP3   OH231227   5.381   5.133   0.121 -0.3702 -0.1308  0.5853
 5187TIP3    H131228   5.310   5.141   0.056  0.7151 -1.0092 -0.7647
 5187TIP3    H231229   5.376   5.214   0.171 -1.9470  0.0958  0.1183
 5188TIP3   OH231230   5.321   0.102   1.287 -0.5650  0.4111 -0.8157
 5188TIP3    H131231   5.273   0.037   1.337 -0.4204  1.9992  1.5725
 5188TIP3    H231232   5.334   0.174   1.349  2.2803  1.2763 -2.2528
 5189TIP3   OH231233   1.326   5.770   0.288  0.2529 -0.4668 -0.4327
 5189TIP3    H131234   1.369   5.768   0.374  0.7478  0.1835 -0.6581
 5189TIP3    H231235   1.263   5.841   0.295  0.4000 -0.3153 -0.6597
 5190TIP3   OH231236   3.753   2.909   0.041 -0.2336 -0.0963 -0.0477
 5190TIP3    H131237   3.658   2.902   0.054 -0.1102 -2.3120  0.0801
 5190TIP3    H231238   3.782   2.819   0.029  1.8044  0.5866 -0.6328
 5191TIP3   OH231239   6.175   0.938   1.080  0.1552  0.1229 -0.2748
 5191TIP3    H131240   6.086   0.908   1.061 -0.0517 -0.4336  1.3602
 5191TIP3    H231241   6.224   0.923   1.000 -1.3278  0.9037 -1.3797
 5192TIP3   OH231242   6.267   6.252   0.194  0.2023 -0.1288 -0.3173
 5192TIP3    H131243   6.250   6.169   0.239 -1.1964 -0.4485 -1.3644
 5192TIP3    H231244   6.311   6.226   0.113  0.1620  0.1982 -0.4460
 5193TIP3   OH231245   3.563   2.814   1.703  0.1962 -0.1749 -0.1029
 5193TIP3    H131246   3.624   2.816   1.777  0.7564 -0.9487 -0.5329
 5193TIP3    H231247   3.503   2.887   1.720  2.4957  1.9903 -0.7372
 5194TIP3   OH231248   5.478   0.406   7.707 -0.9432  0.0763 -0.3539
 5194TIP3    H131249   5.514   0.319   7.691  0.6222  1.0740 -2.6373
 5194TIP3    H231250   5.412   0.417   7.638 -1.9950  0.3082  0.6450
 5195TIP3   OH231251   1.001   3.314   1.356  0.4830  0.7599  0.3934
 5195TIP3    H131252   0.920   3.276   1.322  1.3501 -0.7875 -0.0612
 5195TIP3    H231253   0.998   3.296   1.450  1.4406 -1.7009  0.0319
 5196TIP3   OH231254   2.346   5.896   0.752 -0.2897 -0.0748  0.0302
 5196TIP3    H131255   2.437   5.870   0.740  0.3232  1.8849  0.1574
 5196TIP3    H231256   2.330   5.883   0.846 -0.2895 -0.8237 -0.0670
 5197TIP3   OH231257   5.318   2.537   7.632 -0.0990 -0.3801 -0.1803
 5197TIP3    H131258   5.316   2.454   7.584 -1.4054  0.4112 -1.6048
 5197TIP3    H231259   5.332   2.603   7.563 -3.5669  0.9448  0.2316
 5198TIP3   OH231260   1.774   2.388   5.973  0.1418 -0.2381  0.1513
 5198TIP3    H131261   1.749   2.319   5.911 -0.1088  0.8603 -1.0044
 5198TIP3    H231262   1.777   2.468   5.920 -0.0916  0.7378  1.5604
 5199TIP3   OH231263   2.978   3.546   1.388 -0.0129 -0.1500 -0.7141
 5199TIP3    H131264   2.888   3.572   1.406  0.2450  1.1546 -1.2471
 5199TIP3    H231265   2.970   3.477   1.321 -0.5904  0.4858 -1.3167
 5200TIP3   OH231266   1.773   0.728   0.743 -0.8207 -0.0647  0.4553
 5200TIP3    H131267   1.778   0.762   0.833  0.3336 -0.2009  0.4612
 5200TIP3    H231268   1.849   0.767   0.699 -1.5825  0.2920 -0.5729
 5201TIP3   OH231269   5.957   5.922   0.913  0.3692  0.1110  0.1421
 5201TIP3    H131270   6.035   5.965   0.949  0.9392 -0.9260  0.1834
 5201TIP3    H231271   5.988   5.836   0.885 -0.4379  0.2288 -1.2266
 5202TIP3   OH231272   3.295   0.097   1.780 -0.0030  0.2890 -0.5284
 5202TIP3    H131273   3.338   0.160   1.838 -0.5656 -0.9718  1.3598
 5202TIP3    H231274   3.333   0.013   1.804 -1.6148 -0.5113 -0.6506
 5203TIP3   OH231275   1.724   5.636   6.987  0.6223 -0.2571  0.0713
 5203TIP3    H131276   1.800   5.622   6.930  0.7200  1.3936 -0.2673
 5203TIP3    H231277   1.761   5.638   7.075  0.9965  0.5802 -0.0965
 5204TIP3   OH231278   2.837   1.009   2.704 -0.1432  0.3693 -0.2376
 5204TIP3    H131279   2.850   0.973   2.616  1.3286  0.2093  0.0161
 5204TIP3    H231280   2.858   0.936   2.763  1.5675  1.2237  0.2605
 5205TIP3   OH231281   2.349   3.028   7.212 -0.1722 -0.7771  0.0565
 5205TIP3    H131282   2.441   3.006   7.223  0.0178  0.1540  0.3677
 5205TIP3    H231283   2.328   3.084   7.287 -1.2199 -1.6581  0.4567
 5206TIP3   OH231284   1.762   0.183   6.576 -0.5788  0.0423 -0.2897
 5206TIP3    H131285   1.799   0.229   6.501 -2.1821  0.3414 -0.9357
 5206TIP3    H231286   1.682   0.142   6.542 -1.3329  0.1684  1.2380
 5207TIP3   OH231287   4.912   4.858   7.597  0.4221 -0.2313  0.0359
 5207TIP3    H131288   4.884   4.947   7.577  0.0728 -0.6105 -1.2515
 5207TIP3    H231289   4.835   4.816   7.634 -0.7005 -1.0904 -2.9278
 5208TIP3   OH231290   5.674   1.011   6.569  0.1482  0.2785  0.5275
 5208TIP3    H131291   5.663   0.926   6.610 -0.1970 -0.5289 -1.1278
 5208TIP3    H231292   5.768   1.029   6.575  0.5043 -1.0388 -0.5742
 5209TIP3   OH231293   4.159   4.579   0.462  0.1885  0.5243 -0.8459
 5209TIP3    H131294   4.104   4.615   0.532 -0.0065 -1.8230  0.3013
 5209TIP3    H231295   4.097   4.555   0.393 -0.2529 -1.3809  0.1225
 5210TIP3   OH231296   1.954   0.562   1.329 -0.5133  0.3830 -0.3357
 5210TIP3    H131297   2.008   0.641   1.325  1.5216 -0.9403  0.1947
 5210TIP3    H231298   2.010   0.492   1.296 -1.9820 -1.0338  0.0373
 5211TIP3   OH231299   5.004   0.268   6.866  0.5752 -0.0092 -0.4892
 5211TIP3    H131300   5.069   0.279   6.797  1.1918  1.9589  0.3283
 5211TIP3    H231301   5.047   0.300   6.945 -0.8209 -0.2464  0.4049
 5212TIP3   OH231302   5.171   1.164   0.557  0.0506  0.1615 -0.2513
 5212TIP3    H131303   5.201   1.165   0.466  0.6066 -0.6494 -0.0949
 5212TIP3    H231304   5.194   1.250   0.591  1.8333 -0.2704 -0.2746
 5213TIP3   OH231305   5.557   0.150   7.614 -0.2826 -0.0384 -0.9066
 5213TIP3    H131306   5.640   0.107   7.592 -0.6118 -0.5184 -1.2489
 5213TIP3    H231307   5.496   0.119   7.547 -0.7891  0.1536 -0.5421
 5214TIP3   OH231308   3.510   1.598   7.472 -0.0036 -0.1231  0.4905
 5214TIP3    H131309   3.601   1.627   7.466 -0.3640  0.8342 -0.6362
 5214TIP3    H231310   3.496   1.582   7.566  0.5820  2.1988  1.0328
 5215TIP3   OH231311   3.634   5.916   1.199 -0.2970  0.2010 -0.4376
 5215TIP3    H131312   3.625   5.878   1.286  3.0954  0.7389  0.2805
 5215TIP3    H231313   3.582   5.996   1.203 -0.0390  0.3269  1.1994
 5216TIP3   OH231314   3.493   2.848   6.965  0.6037 -0.6113 -0.7488
 5216TIP3    H131315   3.408   2.886   6.944 -0.9215 -1.0093  3.6730
 5216TIP3    H231316   3.506   2.780   6.899 -1.3871  0.8742 -2.8248
 5217TIP3   OH231317   6.258   3.835   5.878 -0.1920 -0.0396 -0.1504
 5217TIP3    H131318   6.264   3.914   5.932  1.1802  0.1683 -0.5546
 5217TIP3    H231319   6.316   3.853   5.804  1.2633 -1.9723  0.4474
 5218TIP3   OH231320   2.694   3.135   6.907  0.2779  0.6809 -0.2245
 5218TIP3    H131321   2.638   3.058   6.898  1.3291 -0.1717  0.2142
 5218TIP3    H231322   2.767   3.105   6.961  0.8622  1.9103 -0.2954
 5219TIP3   OH231323   2.008   1.784   1.846 -0.3119  0.5086  0.0238
 5219TIP3    H131324   2.078   1.736   1.889 -1.8502 -1.2803  0.6875
 5219TIP3    H231325   1.995   1.739   1.763 -1.8114 -0.3580  0.6790
 5220TIP3   OH231326   5.186   0.305   2.027 -0.1320 -0.5223  0.5371
 5220TIP3    H131327   5.176   0.231   2.087  0.4633  0.1001  1.4392
 5220TIP3    H231328   5.175   0.382   2.083 -0.9546  0.0785 -0.4214
 5221TIP3   OH231329   4.503   0.184   1.412  0.2270  0.7629 -0.2149
 5221TIP3    H131330   4.554   0.151   1.339  0.8189  0.0901  0.4876
 5221TIP3    H231331   4.412   0.174   1.385  0.4213 -0.2833 -0.5206
 5222TIP3   OH231332   1.046   1.892   7.082 -0.1229 -0.7555  0.0717
 5222TIP3    H131333   1.000   1.864   7.161 -1.1930 -0.6396 -0.4930
 5222TIP3    H231334   1.126   1.932   7.115 -0.3472 -1.0840  1.0755
 5223TIP3   OH231335   0.198   4.269   0.863  0.0407  0.2102 -0.1562
 5223TIP3    H131336   0.229   4.331   0.797  0.1602  0.2682 -0.0458
 5223TIP3    H231337   0.136   4.319   0.916 -2.5091 -0.6543 -2.1265
 5224TIP3   OH231338   5.604   6.025   0.694  0.3216 -0.0679 -0.2610
 5224TIP3    H131339   5.577   5.939   0.661  1.3030 -0.6077  0.2974
 5224TIP3    H231340   5.540   6.044   0.763  2.0679 -1.9970  2.0446
 5225TIP3   OH231341   6.029   0.700   1.393  0.5114 -0.2048 -0.2873
 5225TIP3    H131342   6.074   0.682   1.310  2.1752 -1.8195  0.8624
 5225TIP3    H231343   6.087   0.761   1.438  0.4979 -0.6596  0.3567
 5226TIP3   OH231344   4.397   1.668   6.701  0.1421  0.1098 -0.4793
 5226TIP3    H131345   4.411   1.623   6.784 -0.2314 -1.5917 -1.2860
 5226TIP3    H231346   4.483   1.667   6.659  0.2981  0.8372 -0.1915
 5227TIP3   OH231347   3.402   4.972   0.262  0.0758  0.0089  0.3336
 5227TIP3    H131348   3.451   4.913   0.319 -2.0400 -1.6597  0.5458
 5227TIP3    H231349   3.327   4.999   0.315 -1.2584 -0.5672 -1.1785
 5228TIP3   OH231350   0.325   1.780   0.564  0.4123  0.4635 -0.0536
 5228TIP3    H131351   0.283   1.727   0.496 -0.1279 -0.2186  0.7903
 5228TIP3    H231352   0.260   1.784   0.634  1.9617 -1.1515  1.5554
 5229TIP3   OH231353   4.631   2.347   1.286  0.2773 -0.1759 -0.1990
 5229TIP3    H131354   4.583   2.406   1.344  0.0950 -2.1751  1.8256
 5229TIP3    H231355   4.578   2.267   1.284  0.6802 -0.4682 -2.5670
 5230TIP3   OH231356   0.567   1.939   1.075 -0.3905 -0.3092 -0.4951
 5230TIP3    H131357   0.557   1.951   1.169 -1.1485  1.9662 -0.8032
 5230TIP3    H231358   0.653   1.897   1.066  1.6424  3.1053  1.0964
 5231TIP3   OH231359   6.042   0.021   1.440 -0.6947 -0.0160 -0.1822
 5231TIP3    H131360   5.979  -0.025   1.384 -1.1119 -0.6557  0.7736
 5231TIP3    H231361   5.988   0.081   1.491 -0.4831 -0.2876  0.3670
 5232TIP3   OH231362   3.408   6.098   1.250 -0.6256 -0.3742 -0.1803
 5232TIP3    H131363   3.462   6.177   1.259 -0.0755 -0.7383 -0.2069
 5232TIP3    H231364   3.342   6.122   1.186 -2.0069  0.8810  1.5857
 5233TIP3   OH231365   5.943   6.086   1.646  0.5303  0.2107  0.4421
 5233TIP3    H131366   5.885   6.086   1.722  0.7378  1.8125  0.6258
 5233TIP3    H231367   6.030   6.067   1.683  1.0659  3.3535  1.0335
 5234TIP3   OH231368   3.002   4.294   1.689  0.6908 -0.0446 -1.1235
 5234TIP3    H131369   3.065   4.343   1.635  1.5241  0.3084  0.1363
 5234TIP3    H231370   3.043   4.208   1.700  1.1450  0.3035  0.0020
 5235TIP3   OH231371   3.521   6.258   1.017 -0.6928 -0.5630 -0.2614
 5235TIP3    H131372   3.599   6.313   1.027 -0.3554 -0.6366 -2.1223
 5235TIP3    H231373   3.448   6.315   1.043 -0.1408 -0.0106  0.1021
 5236TIP3   OH231374   0.632   3.613   1.762 -0.3577  0.0776 -0.0686
 5236TIP3    H131375   0.660   3.527   1.729 -0.0593  0.0884  0.1517
 5236TIP3    H231376   0.713   3.662   1.772 -0.1680 -0.6469  2.7470
 5237TIP3   OH231377   3.872   4.075   6.200  0.0268 -0.1115 -0.0202
 5237TIP3    H131378   3.930   4.012   6.157  0.0156 -0.1889  0.0771
 5237TIP3    H231379   3.872   4.151   6.142  1.5194  0.5400  0.7700
 5238TIP3   OH231380   0.378   3.039   0.608  0.2110 -0.2124 -0.4563
 5238TIP3    H131381   0.288   3.020   0.583  0.2981 -0.3769 -0.6498
 5238TIP3    H231382   0.371   3.105   0.677 -0.0794 -0.6868 -0.0275
 5239TIP3   OH231383   5.549   1.243   1.527 -0.2903 -0.0667 -0.2646
 5239TIP3    H131384   5.484   1.265   1.593 -0.6576  2.4141 -1.3556
 5239TIP3    H231385   5.602   1.322   1.517  2.5844 -1.7762  0.1547
 5240TIP3   OH231386   0.423   1.373   1.921 -0.1585 -0.0566 -0.3276
 5240TIP3    H131387   0.436   1.372   2.016  1.7631 -2.3425 -0.5215
 5240TIP3    H231388   0.485   1.438   1.889 -2.0340  2.0217  0.0257
 5241TIP3   OH231389   0.818   1.419   7.024 -0.5409  0.3041 -0.2739
 5241TIP3    H131390   0.863   1.346   7.068 -1.3950 -0.4377 -0.6141
 5241TIP3    H231391   0.727   1.413   7.053 -0.8853  0.4763 -1.2763
 5242TIP3   OH231392   0.424   1.081   1.219 -0.5459  0.1933  0.5500
 5242TIP3    H131393   0.433   1.120   1.132 -1.4858  3.1409  1.6313
 5242TIP3    H231394   0.513   1.081   1.255 -0.3714  0.3627  0.1233
 5243TIP3   OH231395   3.814   1.151   6.500  0.5441  0.0175 -0.2638
 5243TIP3    H131396   3.743   1.092   6.472 -0.5195  0.7595  0.7737
 5243TIP3    H231397   3.848   1.187   6.418 -1.4466  0.9598 -0.7458
 5244TIP3   OH231398   3.611   2.293   6.532  0.2267  0.1826  0.1329
 5244TIP3    H131399   3.568   2.275   6.615 -0.8737  0.0595 -0.4425
 5244TIP3    H231400   3.574   2.377   6.503 -0.5446 -0.4985 -0.9401
 5245TIP3   OH231401   0.179   0.567   1.590  0.0856 -0.1295  0.7506
 5245TIP3    H131402   0.200   0.551   1.682 -1.6780 -1.1993  1.0084
 5245TIP3    H231403   0.187   0.662   1.580 -0.7818  0.1460  2.3331
 5246TIP3   OH231404   3.048   4.028   1.611  0.1843 -0.1479  0.8055
 5246TIP3    H131405   3.122   3.973   1.586  1.5283  2.6500 -2.1804
 5246TIP3    H231406   2.974   3.993   1.562  0.9702  0.4382 -0.8885
 5247TIP3   OH231407   0.665   4.160   1.717 -0.4984 -0.1594  0.6053
 5247TIP3    H131408   0.755   4.171   1.689 -0.4988 -1.6951 -0.0875
 5247TIP3    H231409   0.668   4.165   1.813 -0.0506  2.0591  0.5302
 5248TIP3   OH231410   5.559   2.650   6.188 -0.6362  0.6149  0.1346
 5248TIP3    H131411   5.641   2.697   6.177 -0.4033  0.0544 -0.6145
 5248TIP3    H231412   5.528   2.635   6.098 -1.0098 -0.1140  0.3793
 5249TIP3   OH231413   4.278   0.463   0.200 -0.1665  0.2332 -0.2969
 5249TIP3    H131414   4.194   0.418   0.201 -1.0296  1.7948 -0.0530
 5249TIP3    H231415   4.269   0.530   0.132  1.3028 -0.3269 -1.0926
 5250TIP3   OH231416   4.275   0.725   1.040 -0.4316 -0.4016 -0.3498
 5250TIP3    H131417   4.262   0.702   1.132  1.0474 -2.5804 -0.6186
 5250TIP3    H231418   4.254   0.645   0.992  3.2051 -0.8751 -1.4968
 5251TIP3   OH231419   0.025   5.010   0.126 -0.2311 -0.3918  0.1700
 5251TIP3    H131420   0.025   4.923   0.087  3.1931 -0.5038  0.0735
 5251TIP3    H231421   0.090   5.059   0.076  0.0312  1.3029  2.0233
 5252TIP3   OH231422   4.511   3.495   1.575 -0.6752 -0.4110  0.0503
 5252TIP3    H131423   4.524   3.582   1.537 -0.3416 -0.1143  0.8314
 5252TIP3    H231424   4.468   3.511   1.659  2.3036 -0.6936  1.7776
 5253TIP3   OH231425   4.531   5.171   0.930  0.3824 -0.2329 -0.0375
 5253TIP3    H131426   4.530   5.093   0.874 -2.1066  0.1769 -0.6563
 5253TIP3    H231427   4.587   5.146   1.004 -0.5160 -2.6887 -0.0967
 5254TIP3   OH231428   3.963   4.832   7.225 -0.3299  0.1151 -0.7229
 5254TIP3    H131429   3.915   4.770   7.280  0.5798  0.3692  0.3948
 5254TIP3    H231430   4.018   4.777   7.168  0.8338 -0.1485  0.5933
 5255TIP3   OH231431   4.451   1.917   7.660  0.8192 -0.0284  0.1595
 5255TIP3    H131432   4.517   1.959   7.715  2.1280 -0.2969 -1.1279
 5255TIP3    H231433   4.371   1.917   7.713  1.0740  2.8757  0.6950
 5256TIP3   OH231434   1.012   5.243   0.045 -0.2479  0.0475  0.3631
 5256TIP3    H131435   1.043   5.281  -0.038 -1.4199 -0.5476 -0.3817
 5256TIP3    H231436   0.988   5.318   0.099  1.8236  0.5040  0.7358
 5257TIP3   OH231437   5.952   1.056   6.564 -0.2814  0.2824  0.2810
 5257TIP3    H131438   5.937   1.114   6.489 -0.1123 -0.0988 -0.0529
 5257TIP3    H231439   6.045   1.065   6.584  0.1991 -1.2747 -0.9848
 5258TIP3   OH231440   5.232   2.600   1.332  0.1749 -0.2627 -0.3033
 5258TIP3    H131441   5.189   2.674   1.290  0.4231 -0.4914 -0.9643
 5258TIP3    H231442   5.206   2.523   1.281  0.7449 -0.4989 -0.2554
 5259TIP3   OH231443   0.770   3.886   6.375 -0.0428  0.2705 -0.1180
 5259TIP3    H131444   0.785   3.980   6.362 -1.0859  0.4478 -0.2065
 5259TIP3    H231445   0.720   3.882   6.457  0.2774 -0.2306  0.0494
 5260TIP3   OH231446   1.025   4.642   2.879  0.0437  0.0043  0.5980
 5260TIP3    H131447   1.087   4.569   2.872  0.1833  0.0046  1.6458
 5260TIP3    H231448   0.939   4.602   2.865  0.1189 -0.3695  1.1710
 5261TIP3   OH231449   0.671   4.442   1.256  0.1432  0.3493  0.0241
 5261TIP3    H131450   0.720   4.384   1.198  1.4131  1.3168  0.0737
 5261TIP3    H231451   0.695   4.414   1.345 -0.8600 -0.3535  0.0915
 5262TIP3   OH231452   3.647   1.723   1.104 -0.1604  0.0067 -0.1227
 5262TIP3    H131453   3.572   1.728   1.044 -0.0258  0.1612 -0.2801
 5262TIP3    H231454   3.668   1.815   1.123  0.5543 -0.0120 -0.7919
 5263TIP3   OH231455   5.540   0.085   0.171 -0.7752 -0.2108 -0.4561
 5263TIP3    H131456   5.523   0.069   0.078 -1.0371 -1.1628 -0.2585
 5263TIP3    H231457   5.627   0.124   0.174 -1.4299  1.3762 -1.2219
 5264TIP3   OH231458   3.032   5.355   1.272 -0.1323  0.3034  0.4639
 5264TIP3    H131459   3.057   5.403   1.193 -2.2339  0.9073  0.0993
 5264TIP3    H231460   3.046   5.263   1.249  0.7442  0.5498 -0.0413
 5265TIP3   OH231461   5.162   6.130   1.322  0.0863  0.1663 -0.4616
 5265TIP3    H131462   5.194   6.066   1.386 -2.1551 -1.6623 -1.0172
 5265TIP3    H231463   5.185   6.093   1.237  0.5552  1.1657 -0.7856
 5266TIP3   OH231464   2.847   6.170   7.149  0.0290 -0.1083 -0.4467
 5266TIP3    H131465   2.772   6.111   7.144 -0.7196  0.7576  0.2009
 5266TIP3    H231466   2.917   6.115   7.185 -0.3378 -0.8789 -0.8797
 5267TIP3   OH231467   0.132   1.967   7.050 -0.1853 -0.3776 -0.2269
 5267TIP3    H131468   0.072   2.018   6.995 -0.4995  0.6707  1.0265
 5267TIP3    H231469   0.094   1.973   7.138  1.3243 -0.3786  0.4504
 5268TIP3   OH231470   1.703   5.701   2.739  0.0965  0.2762 -0.1624
 5268TIP3    H131471   1.727   5.669   2.825  1.3700 -1.1130 -0.9971
 5268TIP3    H231472   1.774   5.672   2.681 -0.9376  0.7715 -1.7506
 5269TIP3   OH231473   3.476   0.481   7.092 -0.1745  0.1079  0.7295
 5269TIP3    H131474   3.528   0.476   7.012 -0.6292  1.1984  0.3453
 5269TIP3    H231475   3.389   0.506   7.062 -0.3780  0.4160  1.5616
 5270TIP3   OH231476   3.617   0.004   1.657 -0.6685  0.0547 -0.2897
 5270TIP3    H131477   3.671   0.032   1.732  0.9031 -2.0234 -0.5647
 5270TIP3    H231478   3.664   0.036   1.580 -1.4091  0.7481 -0.4690
 5271TIP3   OH231479   3.786   5.252   7.448  0.3162 -0.7022  0.1460
 5271TIP3    H131480   3.730   5.330   7.441 -0.0093 -0.6800  2.3466
 5271TIP3    H231481   3.751   5.192   7.383  0.6359  0.9832 -1.6972
 5272TIP3   OH231482   1.280   0.826   0.553  0.1500 -0.0355 -0.0042
 5272TIP3    H131483   1.277   0.838   0.648  0.2576  0.1395 -0.0234
 5272TIP3    H231484   1.189   0.812   0.527  0.2707 -1.6910  0.3371
 5273TIP3   OH231485   1.978   0.918   7.536  0.4396  0.5442 -0.1816
 5273TIP3    H131486   2.031   0.996   7.555  1.2939  0.0891 -0.6344
 5273TIP3    H231487   1.996   0.859   7.608 -0.4356  0.8680  0.3131
 5274TIP3   OH231488   5.887   1.011   1.208 -0.1782 -0.0049 -0.0179
 5274TIP3    H131489   5.856   1.048   1.291  0.5335 -1.2544  0.8466
 5274TIP3    H231490   5.915   1.086   1.157 -2.7150  1.0269 -0.0703
 5275TIP3   OH231491   4.595   0.456   0.413 -0.4132  0.0225  0.6245
 5275TIP3    H131492   4.599   0.404   0.493 -0.5342 -1.0452 -0.0443
 5275TIP3    H231493   4.559   0.397   0.347  1.9862  0.0539 -0.8538
 5276TIP3   OH231494   5.035   1.429   2.898  0.1161  0.3028 -0.0695
 5276TIP3    H131495   5.044   1.464   2.987 -2.4083  0.6991  0.1040
 5276TIP3    H231496   5.116   1.380   2.883  0.0242 -1.0062  2.9919
 5277TIP3   OH231497   6.192   2.378   0.132 -0.7512 -0.4098 -0.2569
 5277TIP3    H131498   6.254   2.417   0.071  0.0700 -2.4858 -0.8205
 5277TIP3    H231499   6.110   2.425   0.117  0.2683  1.3451 -0.5691
 5278TIP3   OH231500   0.014   0.866   6.742 -0.4909 -0.5198  0.6119
 5278TIP3    H131501  -0.065   0.811   6.737 -0.8789  0.0890 -0.2026
 5278TIP3    H231502   0.086   0.805   6.727 -0.8622 -0.9288  0.4405
 5279TIP3   OH231503   5.337   4.351   1.897 -0.1838  0.1159 -0.5800
 5279TIP3    H131504   5.421   4.391   1.918  0.7638 -1.4642 -1.1841
 5279TIP3    H231505   5.295   4.337   1.982  0.8539 -0.4753 -0.1410
 5280TIP3   OH231506   0.685   5.160   0.907  0.0650 -0.2605  0.1330
 5280TIP3    H131507   0.739   5.088   0.874  0.4730  0.4517 -0.7987
 5280TIP3    H231508   0.600   5.120   0.924  0.0600 -0.8119 -1.1119
 5281TIP3   OH231509   3.766   2.140   2.039  0.1031  0.7580  0.4317
 5281TIP3    H131510   3.713   2.082   1.985  0.1260 -0.6619  1.8486
 5281TIP3    H231511   3.856   2.112   2.024  0.1488  0.6909  0.8265
 5282TIP3   OH231512   4.981   2.096   7.186  0.4649 -0.2954 -0.4182
 5282TIP3    H131513   4.900   2.116   7.138  0.8976 -0.3406 -1.1758
 5282TIP3    H231514   5.006   2.180   7.224 -0.4011 -0.4592  0.5492
 5283TIP3   OH231515   1.516   4.713   2.301 -0.4743 -0.4137  0.5784
 5283TIP3    H131516   1.487   4.622   2.308  0.9010 -0.8639  0.8000
 5283TIP3    H231517   1.511   4.747   2.391  1.2188 -1.0262  0.9568
 5284TIP3   OH231518   3.241   3.598   2.269  0.1823  0.0694  0.5274
 5284TIP3    H131519   3.195   3.602   2.353 -0.1625  0.8196  0.3159
 5284TIP3    H231520   3.178   3.634   2.206  0.0285 -1.4792 -0.2436
 5285TIP3   OH231521   1.027   2.178   7.274 -0.2443 -1.3462 -0.2231
 5285TIP3    H131522   0.938   2.147   7.291 -0.8867 -0.4809 -1.8183
 5285TIP3    H231523   1.032   2.262   7.321 -0.6186 -0.9293 -0.9105
 5286TIP3   OH231524   2.299   5.346   2.354 -0.1930 -0.1535 -0.2344
 5286TIP3    H131525   2.376   5.402   2.356 -1.4132  1.7648 -2.2057
 5286TIP3    H231526   2.265   5.349   2.444  0.8398  0.6986  0.1467
 5287TIP3   OH231527   5.678   3.133   0.541 -0.1725 -0.1592 -0.4062
 5287TIP3    H131528   5.648   3.203   0.483 -0.7557  0.7294  0.9219
 5287TIP3    H231529   5.756   3.097   0.498 -1.2304 -0.3183 -2.2999
 5288TIP3   OH231530   0.347   5.481   2.234 -0.1449  0.4847  0.2220
 5288TIP3    H131531   0.339   5.575   2.221 -1.2508  0.6654  1.8175
 5288TIP3    H231532   0.295   5.442   2.163 -2.8205  1.2487  1.6245
 5289TIP3   OH231533   2.208   5.602   0.477  0.2336  0.1866 -0.0113
 5289TIP3    H131534   2.299   5.607   0.446  0.5276  2.0473  0.9775
 5289TIP3    H231535   2.158   5.575   0.400  1.3612  1.3861 -1.2240
 5290TIP3   OH231536   5.095   4.602   6.106  0.6038  0.1071  0.4004
 5290TIP3    H131537   5.144   4.683   6.117  0.8139 -0.1333  1.2855
 5290TIP3    H231538   5.155   4.533   6.135 -0.8512 -0.0560  3.3734
 5291TIP3   OH231539   5.877   4.726   2.075 -0.0372 -0.5075 -0.2106
 5291TIP3    H131540   5.814   4.711   2.145  1.3876 -1.2750  0.9641
 5291TIP3    H231541   5.952   4.671   2.098  0.9327  0.1087 -1.7352
 5292TIP3   OH231542   2.755   1.444   0.013  0.0225 -0.6202 -0.2228
 5292TIP3    H131543   2.728   1.533   0.034 -0.4087 -1.1958  1.8693
 5292TIP3    H231544   2.795   1.451  -0.074 -0.6260  1.4674 -0.4046
 5293TIP3   OH231545   4.842   0.341   2.314 -0.6406  0.3385  0.2261
 5293TIP3    H131546   4.929   0.360   2.277  0.6762 -2.5387  1.5139
 5293TIP3    H231547   4.845   0.380   2.401  1.3246 -3.4605  2.1117
 5294TIP3   OH231548   5.718   2.883   2.111 -0.1155 -0.8627  0.1594
 5294TIP3    H131549   5.672   2.966   2.101  0.3241 -0.3487  1.9621
 5294TIP3    H231550   5.651   2.822   2.145 -0.4766 -1.3160 -1.3095
 5295TIP3   OH231551   3.797   0.846   0.162  0.1642 -0.2935  0.2773
 5295TIP3    H131552   3.872   0.844   0.220  1.0200 -0.2736 -0.7933
 5295TIP3    H231553   3.724   0.874   0.217  0.7283 -1.2695  1.5430
 5296TIP3   OH231554   5.979   3.200   0.269  0.4189  0.2647  0.2714
 5296TIP3    H131555   6.057   3.245   0.300 -0.6588  0.7580  2.4653
 5296TIP3    H231556   5.917   3.270   0.249  0.5619 -0.1070 -1.7434
 5297TIP3   OH231557   2.672   1.657   3.109  0.8336 -0.0680 -0.0768
 5297TIP3    H131558   2.587   1.679   3.147  0.8404 -0.6669  0.3059
 5297TIP3    H231559   2.734   1.672   3.180  0.8994 -0.7591  0.0225
 5298TIP3   OH231560   3.524   2.008   2.285 -0.3101  0.5128  0.3104
 5298TIP3    H131561   3.589   1.947   2.250  1.7276  2.2216  0.9722
 5298TIP3    H231562   3.536   2.006   2.379 -2.2245 -0.1584  0.5951
 5299TIP3   OH231563   5.496   3.888   6.810  0.1797 -0.4710 -0.0433
 5299TIP3    H131564   5.582   3.867   6.847 -0.0720  0.2931  1.0317
 5299TIP3    H231565   5.435   3.879   6.884 -0.7473 -1.4733 -0.8991
 5300TIP3   OH231566   1.721   1.913   0.758  0.4995 -0.1572 -0.0160
 5300TIP3    H131567   1.782   1.974   0.717  1.7271 -2.0426 -1.1411
 5300TIP3    H231568   1.720   1.938   0.850 -0.4742  2.6687 -0.6899
 5301TIP3   OH231569   1.125   4.622   7.285 -0.4458 -0.2436 -0.5577
 5301TIP3    H131570   1.111   4.652   7.195 -0.2667 -1.4847 -1.0156
 5301TIP3    H231571   1.185   4.548   7.277 -0.3823 -0.3398  0.5915
 5302TIP3   OH231572   0.282   1.920   0.290  0.0486 -0.3264  0.1623
 5302TIP3    H131573   0.323   1.958   0.368  1.3650 -0.4818 -0.4259
 5302TIP3    H231574   0.214   1.861   0.324 -0.1901  0.4917  1.1475
 5303TIP3   OH231575   4.606   4.226   6.285 -0.3225  0.6109  0.3976
 5303TIP3    H131576   4.564   4.181   6.212  0.2764  0.1694  0.3138
 5303TIP3    H231577   4.685   4.266   6.247 -0.5282  1.2208  0.5974
 5304TIP3   OH231578   0.270   1.294   0.565 -0.7792  0.3332 -0.3482
 5304TIP3    H131579   0.336   1.362   0.580  2.6282 -2.8679  0.7463
 5304TIP3    H231580   0.271   1.280   0.470  1.0937 -0.4228 -0.2616
 5305TIP3   OH231581   0.286   4.748   0.060 -0.4037  0.5338  0.4041
 5305TIP3    H131582   0.314   4.656   0.061  0.4451  0.7676 -0.2978
 5305TIP3    H231583   0.313   4.783   0.144  0.6336  0.5129  0.0966
 5306TIP3   OH231584   1.688   3.709   0.633  0.7173  0.2751 -0.0028
 5306TIP3    H131585   1.780   3.688   0.648  0.7418  1.3126  1.4104
 5306TIP3    H231586   1.640   3.631   0.661  1.1530 -0.4738 -1.2321
 5307TIP3   OH231587   1.961   1.024   0.979  0.2266  0.8339  0.7984
 5307TIP3    H131588   1.912   1.100   1.011  0.5468  1.1928  0.4464
 5307TIP3    H231589   1.904   0.949   0.998 -0.4479  1.2421  0.4117
 5308TIP3   OH231590   1.145   4.764   0.198 -0.4656  0.0873 -0.0278
 5308TIP3    H131591   1.156   4.843   0.144  0.7936 -0.5131 -0.7129
 5308TIP3    H231592   1.144   4.796   0.288 -3.6499  1.2193 -0.3537
 5309TIP3   OH231593   1.364   3.618   1.240  0.2127 -0.3073  0.3746
 5309TIP3    H131594   1.391   3.624   1.149  0.6406 -0.0202  0.5166
 5309TIP3    H231595   1.321   3.532   1.247 -1.2783  0.3475 -0.4621
 5310TIP3   OH231596   6.052   0.386   5.918  0.3948  0.6443 -0.1468
 5310TIP3    H131597   5.995   0.372   5.993  2.7568  0.5279  1.7344
 5310TIP3    H231598   6.045   0.479   5.899  0.2954  0.8058  0.6537
 5311TIP3   OH231599   3.652   2.043   0.621  0.0427 -0.2654  0.3929
 5311TIP3    H131600   3.619   2.076   0.538  2.1124 -0.2762 -0.4987
 5311TIP3    H231601   3.577   2.001   0.662 -1.7316  2.1383 -0.1881
 5312TIP3   OH231602   2.572   2.129   2.118  0.2348 -0.3087  0.0996
 5312TIP3    H131603   2.634   2.188   2.076  0.8204 -0.2691  0.9772
 5312TIP3    H231604   2.487   2.154   2.083  0.2611  2.0505  1.4961
 5313TIP3   OH231605   1.765   3.974   0.454  0.1776 -0.0402 -0.3044
 5313TIP3    H131606   1.681   3.959   0.499 -1.2177  1.4809 -2.2181
 5313TIP3    H231607   1.830   3.975   0.524 -1.3665 -1.2857  1.2545
 5314TIP3   OH231608   2.678   0.422   7.558 -0.1875 -0.2669  0.8008
 5314TIP3    H131609   2.719   0.398   7.641 -1.6396 -1.9632  1.0784
 5314TIP3    H231610   2.612   0.487   7.582  1.6882  1.9013  0.4477
 5315TIP3   OH231611   3.073   4.970   0.050 -0.0275 -0.1311 -0.2828
 5315TIP3    H131612   3.041   5.013   0.129  0.1822 -1.3326  0.4892
 5315TIP3    H231613   3.163   5.002   0.040 -0.0895  0.1038 -0.0962
 5316TIP3   OH231614   2.384   1.364   1.372  0.5643 -0.3286  0.1329
 5316TIP3    H131615   2.338   1.307   1.310  0.0936 -0.3578  0.5012
 5316TIP3    H231616   2.427   1.430   1.317 -0.5240  0.1356 -0.1807
 5317TIP3   OH231617   3.180   0.799   1.081  0.1745  0.4785  0.0020
 5317TIP3    H131618   3.233   0.810   1.002  0.1641  0.4092 -0.0150
 5317TIP3    H231619   3.241   0.766   1.147 -0.0448 -0.5631 -0.2909
 5318TIP3   OH231620   5.438   3.962   0.362  0.3781  0.1834 -0.2566
 5318TIP3    H131621   5.472   4.009   0.286  1.2271  0.3088  0.1894
 5318TIP3    H231622   5.515   3.945   0.416 -0.3548  1.0455  1.1081
 5319TIP3   OH231623   4.237   2.708   7.596  0.0536  0.5950 -0.5073
 5319TIP3    H131624   4.263   2.618   7.574 -0.7417 -0.4384  2.3493
 5319TIP3    H231625   4.198   2.742   7.515 -1.2718 -2.2698 -1.2145
 5320TIP3   OH231626   1.805   2.124   0.622  0.1952  0.1815  0.6571
 5320TIP3    H131627   1.833   2.158   0.537  1.0466  0.4685  1.0428
 5320TIP3    H231628   1.739   2.186   0.653  1.3631  1.2319  1.1206
 5321TIP3   OH231629   3.155   3.821   7.641  0.2434  0.4129 -0.0843
 5321TIP3    H131630   3.147   3.754   7.708 -0.6174  0.6852  0.1056
 5321TIP3    H231631   3.214   3.886   7.679  0.8978 -0.1220 -0.1787
 5322TIP3   OH231632   6.141   5.650   1.626  0.2161 -0.0316  0.2419
 5322TIP3    H131633   6.059   5.658   1.578 -0.6399  0.4271  1.6946
 5322TIP3    H231634   6.199   5.716   1.586 -0.6929  0.7986  0.2538
 5323TIP3   OH231635   2.615   3.016   2.409  0.0504 -0.1560  0.0049
 5323TIP3    H131636   2.649   2.955   2.475  0.2428 -0.0337  0.0193
 5323TIP3    H231637   2.580   3.088   2.461 -0.2999 -0.3162 -0.0067
 5324TIP3   OH231638   5.007   1.371   1.695  0.7196  0.2292  0.4453
 5324TIP3    H131639   4.946   1.330   1.756 -1.9795  1.8561 -0.9991
 5324TIP3    H231640   5.079   1.402   1.750 -1.1458  0.8242  2.6848
 5325TIP3   OH231641   1.665   4.076   6.719 -0.6620 -0.1851 -0.2093
 5325TIP3    H131642   1.614   4.079   6.638  0.6729  0.2564 -1.0637
 5325TIP3    H231643   1.740   4.133   6.703  0.6421 -1.5598  0.6267
 5326TIP3   OH231644   2.646   6.121   2.907 -0.5352  0.6375 -0.1850
 5326TIP3    H131645   2.611   6.032   2.916 -0.6278  0.7218  0.2840
 5326TIP3    H231646   2.684   6.122   2.819 -0.3877  0.0802 -0.1353
 5327TIP3   OH231647   4.816   4.373   6.184  0.0947  0.0110 -0.1586
 5327TIP3    H131648   4.843   4.339   6.098  0.2785 -0.7346  0.1831
 5327TIP3    H231649   4.834   4.467   6.180  2.1810 -0.3458 -0.1822
 5328TIP3   OH231650   4.228   5.042   2.188 -0.9772 -0.1377 -0.2705
 5328TIP3    H131651   4.275   4.959   2.202 -1.2249 -0.4740 -1.2969
 5328TIP3    H231652   4.277   5.106   2.238 -0.2291 -0.7451 -0.2009
 5329TIP3   OH231653   5.715   4.642   6.292 -0.2505  0.3798 -0.5618
 5329TIP3    H131654   5.628   4.613   6.320 -0.0718  0.3903  0.0145
 5329TIP3    H231655   5.707   4.656   6.198 -0.9890  0.7693 -0.4474
 5330TIP3   OH231656   5.769   5.682   6.659 -0.0635  0.4388  0.0283
 5330TIP3    H131657   5.764   5.675   6.755 -0.6925  0.6856  0.0210
 5330TIP3    H231658   5.759   5.776   6.642  0.6907  0.4703 -0.2487
 5331TIP3   OH231659   1.424   3.714   0.924 -0.2741 -0.1177  0.1037
 5331TIP3    H131660   1.482   3.638   0.935 -2.3804 -2.0766 -1.2658
 5331TIP3    H231661   1.336   3.678   0.937 -1.2773  2.7826  2.4867
 5332TIP3   OH231662   3.030   2.707   0.521  0.0437 -0.4071  0.0199
 5332TIP3    H131663   3.070   2.793   0.535  2.1718 -1.3560  0.1517
 5332TIP3    H231664   2.973   2.719   0.445  2.9946  0.3645 -2.2523
 5333TIP3   OH231665   3.163   2.290   1.024  0.0440  0.5862  0.1589
 5333TIP3    H131666   3.252   2.324   1.028 -0.3883  1.9100 -0.7282
 5333TIP3    H231667   3.145   2.280   0.930  0.7194 -3.8479  0.2684
 5334TIP3   OH231668   0.352   4.510   0.975  0.4452  0.1610  0.7206
 5334TIP3    H131669   0.415   4.488   0.907 -1.4278 -2.0325 -0.4339
 5334TIP3    H231670   0.363   4.441   1.041 -1.0587 -0.5882  0.2307
 5335TIP3   OH231671   2.670   5.570   6.687 -0.0232  0.2610  0.1698
 5335TIP3    H131672   2.654   5.481   6.718 -1.2037  0.2194 -0.5150
 5335TIP3    H231673   2.747   5.599   6.736 -0.7751 -0.4393  1.8336
 5336TIP3   OH231674   2.451   1.741   0.796  0.1628  0.1145  0.3205
 5336TIP3    H131675   2.357   1.760   0.787 -0.0765 -0.2351  1.7083
 5336TIP3    H231676   2.495   1.816   0.756 -0.7363  1.8167  2.3108
 5337TIP3   OH231677   3.267   4.335   0.340 -0.1442 -0.2022  0.0559
 5337TIP3    H131678   3.227   4.255   0.374 -2.8451  1.1228  0.3017
 5337TIP3    H231679   3.262   4.325   0.245  0.5630 -0.7762  0.0712
 5338TIP3   OH231680   4.781   5.739   2.367  0.0792  0.1695  0.0831
 5338TIP3    H131681   4.720   5.668   2.343 -0.7970  0.5431  1.1304
 5338TIP3    H231682   4.863   5.694   2.388 -0.8204 -0.7159  1.9840
 5339TIP3   OH231683   4.500   2.348   0.042 -0.2848  0.3338  0.3378
 5339TIP3    H131684   4.538   2.429   0.008  0.3865  0.6096  1.6589
 5339TIP3    H231685   4.576   2.295   0.066 -0.7244 -0.6703 -0.4337
 5340TIP3   OH231686   2.862   0.654   0.279  0.2577 -0.2677 -0.0281
 5340TIP3    H131687   2.824   0.571   0.310  1.5840 -1.0443 -0.3864
 5340TIP3    H231688   2.809   0.677   0.203 -0.4226 -0.5446  0.3571
 5341TIP3   OH231689   2.691   0.820   1.833 -0.0005  0.0592 -0.4375
 5341TIP3    H131690   2.771   0.773   1.852 -0.2990 -0.1102  0.4404
 5341TIP3    H231691   2.653   0.839   1.919 -1.4538 -0.8295 -0.8576
 5342TIP3   OH231692   1.224   2.703   6.614 -0.6953 -0.4913 -0.4633
 5342TIP3    H131693   1.254   2.793   6.625 -1.1416 -0.3979  0.0256
 5342TIP3    H231694   1.240   2.684   6.521 -2.3184  0.7424 -1.0532
 5343TIP3   OH231695   2.659   3.744   1.882 -0.4037  0.2293  0.1405
 5343TIP3    H131696   2.722   3.700   1.825 -0.2732  2.4463 -1.5529
 5343TIP3    H231697   2.613   3.673   1.927 -0.6671 -1.6658 -2.8793
 5344TIP3   OH231698   6.275   4.386   1.769 -0.3802  0.2833 -0.3395
 5344TIP3    H131699   6.217   4.371   1.694 -0.3487  0.6705 -0.4431
 5344TIP3    H231700   6.238   4.463   1.813  0.2301  0.7167 -0.5818
 5345TIP3   OH231701   0.558   2.394   1.453 -0.5982  0.1289  0.1257
 5345TIP3    H131702   0.531   2.421   1.540 -0.3611 -0.1129  0.2763
 5345TIP3    H231703   0.643   2.351   1.466 -1.3749 -1.5180  0.0272
 5346TIP3   OH231704   1.067   0.955   1.568  0.1055  0.1632 -0.1144
 5346TIP3    H131705   1.004   1.027   1.572 -2.9768 -2.0858 -2.6021
 5346TIP3    H231706   1.133   0.984   1.506 -0.1621  1.4376  0.1775
 5347TIP3   OH231707   4.077   0.583   7.298  0.2811 -0.4566 -0.1399
 5347TIP3    H131708   4.033   0.668   7.292 -0.3364 -0.7227  0.5514
 5347TIP3    H231709   4.024   0.524   7.244 -1.7069 -1.3646  2.5458
 5348TIP3   OH231710   0.521   6.231   0.296 -0.1486  0.3699 -0.2584
 5348TIP3    H131711   0.468   6.187   0.362 -0.3409  0.2557 -0.4850
 5348TIP3    H231712   0.568   6.161   0.251  0.8325  0.5451  0.4865
 5349TIP3   OH231713   6.023   3.989   1.384 -0.0690 -0.4417  0.0973
 5349TIP3    H131714   5.931   3.967   1.398  0.1380 -1.1784  0.3721
 5349TIP3    H231715   6.022   4.066   1.327 -0.8694  0.2191  0.9918
 5350TIP3   OH231716   2.792   5.978   0.386 -0.4111 -0.1523  0.6331
 5350TIP3    H131717   2.830   6.062   0.410  0.5152 -0.4810  0.3701
 5350TIP3    H231718   2.866   5.926   0.354 -1.1949 -0.5981 -0.5097
 5351TIP3   OH231719   2.332   0.156   0.599 -0.0521  0.0481  0.1464
 5351TIP3    H131720   2.374   0.209   0.666 -0.4720 -0.1808  0.5953
 5351TIP3    H231721   2.244   0.141   0.632  0.3612 -1.7772  0.5061
 5352TIP3   OH231722   3.478   5.139   2.285  0.3482  0.0283  0.0678
 5352TIP3    H131723   3.528   5.151   2.204 -0.3029  1.3536 -0.1631
 5352TIP3    H231724   3.420   5.065   2.265 -2.5450  2.6130 -2.1846
 5353TIP3   OH231725   1.557   3.571   7.446 -0.3173  0.4321 -0.1687
 5353TIP3    H131726   1.472   3.529   7.458 -0.4655  0.6025 -0.6128
 5353TIP3    H231727   1.621   3.500   7.455 -0.6150 -0.1139 -1.9616
 5354TIP3   OH231728   2.154   2.726   7.177  0.2326  0.3814  0.3056
 5354TIP3    H131729   2.073   2.676   7.167  1.0348 -0.5810 -2.2045
 5354TIP3    H231730   2.126   2.808   7.217 -1.8764 -0.1788  0.1263
 5355TIP3   OH231731   0.273   4.063   7.420  0.1831 -0.6567 -0.5725
 5355TIP3    H131732   0.343   4.125   7.442  0.3420 -1.3902  1.1018
 5355TIP3    H231733   0.311   3.977   7.439 -0.4053 -1.2247 -1.8420
 5356TIP3   OH231734   3.462   4.560   1.269 -0.4692  1.0014  0.1907
 5356TIP3    H131735   3.512   4.636   1.299  0.5087  1.2823 -2.0167
 5356TIP3    H231736   3.523   4.486   1.276 -0.3198  1.0237 -0.8306
 5357TIP3   OH231737   3.240   4.773   6.708  0.0954  0.3270 -0.6877
 5357TIP3    H131738   3.303   4.845   6.708  1.0823 -0.5028 -1.4750
 5357TIP3    H231739   3.231   4.750   6.801  1.3484  0.1442 -0.5844
 5358TIP3   OH231740   1.649   0.347   6.939 -0.3701  0.4703 -0.1959
 5358TIP3    H131741   1.591   0.405   6.889  0.1247  1.5857  0.5014
 5358TIP3    H231742   1.589   0.287   6.984 -1.0100  1.6250  0.5294
 5359TIP3   OH231743   3.707   5.698   0.673 -0.1279  0.8784 -0.8898
 5359TIP3    H131744   3.689   5.620   0.620  0.7211 -1.3882  1.8998
 5359TIP3    H231745   3.798   5.719   0.654  0.2639 -0.1072 -0.1958
 5360TIP3   OH231746   6.063   1.654   7.009 -0.5608  0.6940  0.6319
 5360TIP3    H131747   6.000   1.681   7.075 -1.6465  0.6409 -0.3521
 5360TIP3    H231748   6.091   1.737   6.968 -0.9889  0.6276  0.1951
 5361TIP3   OH231749   3.635   0.981   2.040 -0.0032 -0.0855 -0.0081
 5361TIP3    H131750   3.671   0.896   2.065 -0.6042 -0.5383 -0.6375
 5361TIP3    H231751   3.561   0.959   1.983  1.0345  0.8862 -1.8047
 5362TIP3   OH231752   6.245   1.347   1.477 -0.1847 -0.3818  0.1645
 5362TIP3    H131753   6.255   1.284   1.406  3.5838 -0.9303  1.0007
 5362TIP3    H231754   6.287   1.427   1.444  0.4610 -0.2364  1.2935
 5363TIP3   OH231755   0.186   5.039   2.790 -0.1141 -0.2355  0.4782
 5363TIP3    H131756   0.273   5.004   2.810  0.8352 -0.1220 -2.8206
 5363TIP3    H231757   0.134   4.963   2.768 -0.5798 -0.2126  1.4531
 5364TIP3   OH231758   5.726   5.544   1.347  0.5549  0.1741 -0.0340
 5364TIP3    H131759   5.808   5.514   1.388 -0.4890 -0.8456  1.3994
 5364TIP3    H231760   5.657   5.495   1.393 -0.7858 -0.0700 -2.1915
 5365TIP3   OH231761   0.498   4.121   1.061  0.2369 -0.0309  0.1785
 5365TIP3    H131762   0.449   4.188   1.107  1.0434  0.8715 -0.2379
 5365TIP3    H231763   0.587   4.156   1.054  0.6858 -1.1406 -0.0512
 5366TIP3   OH231764   2.399   1.513   0.227 -0.8600  0.2677  0.3468
 5366TIP3    H131765   2.335   1.556   0.284 -0.2838  1.7409 -0.0591
 5366TIP3    H231766   2.470   1.489   0.286 -0.4880  1.3331  0.3546
 5367TIP3   OH231767   5.766   4.497   1.714  0.3657 -0.2225 -0.0615
 5367TIP3    H131768   5.692   4.520   1.771  1.5642  1.6999  0.7779
 5367TIP3    H231769   5.730   4.504   1.626 -1.1282 -1.8470  0.3535
 5368TIP3   OH231770   1.760   3.362   1.793  0.4179 -0.3252 -0.6794
 5368TIP3    H131771   1.739   3.414   1.870 -1.2252  0.8562 -1.8533
 5368TIP3    H231772   1.844   3.398   1.761 -0.8446  1.9594 -1.6670
 5369TIP3   OH231773   3.236   5.761   6.285 -0.7828  0.1097 -0.2525
 5369TIP3    H131774   3.296   5.689   6.308 -0.4930 -0.0193 -1.3698
 5369TIP3    H231775   3.223   5.807   6.368  1.6930  0.7551 -0.1222
 5370TIP3   OH231776   3.573   5.473   6.621  0.6731  0.2244  0.3278
 5370TIP3    H131777   3.636   5.412   6.661  1.8546  0.1604 -1.4761
 5370TIP3    H231778   3.590   5.557   6.664  0.7564 -0.1801  1.1036
 5371TIP3   OH231779   0.052   2.180   0.220 -0.2978 -0.0043 -0.6803
 5371TIP3    H131780   0.100   2.147   0.144 -0.3799 -1.4915 -0.1296
 5371TIP3    H231781  -0.026   2.221   0.184  0.6692  1.1478 -1.5039
 5372TIP3   OH231782   0.574   3.622   0.909  0.2212 -0.0612  0.0452
 5372TIP3    H131783   0.580   3.676   0.988  0.3898 -0.7433  0.5028
 5372TIP3    H231784   0.665   3.608   0.882  0.2865 -1.5482  0.9248
 5373TIP3   OH231785   5.911   1.757   1.120 -0.1705  0.3334 -0.2038
 5373TIP3    H131786   5.939   1.839   1.079  2.4999  0.3079  1.3481
 5373TIP3    H231787   5.921   1.691   1.052  1.7399  0.6846 -0.3104
 5374TIP3   OH231788   0.036   4.010   7.324 -0.4845  0.1121 -0.6376
 5374TIP3    H131789   0.115   4.050   7.360 -0.6399  0.2205 -0.4127
 5374TIP3    H231790   0.029   3.926   7.369  0.0320 -0.3268 -1.3621
 5375TIP3   OH231791   1.461   1.954   1.180  0.5138  0.3398  0.5093
 5375TIP3    H131792   1.463   1.899   1.102 -1.2856  0.9291  0.0089
 5375TIP3    H231793   1.488   1.895   1.251 -0.6690 -1.0057 -0.1181
 5376TIP3   OH231794   4.341   4.463   1.384  0.5963  0.3389  0.4258
 5376TIP3    H131795   4.268   4.506   1.428 -0.0996  1.4438 -1.6680
 5376TIP3    H231796   4.300   4.397   1.328  1.5343 -1.8413  2.1737
 5377TIP3   OH231797   2.593   2.581   0.249 -0.1341 -0.0931 -0.3149
 5377TIP3    H131798   2.655   2.628   0.305 -0.2496 -1.4572  1.0032
 5377TIP3    H231799   2.606   2.620   0.162 -0.4627  2.5675  0.7352
 5378TIP3   OH231800   3.590   2.541   2.071  0.9507  0.2031 -0.0627
 5378TIP3    H131801   3.555   2.497   2.148 -2.0926  1.2191 -0.7510
 5378TIP3    H231802   3.624   2.469   2.017 -0.1815 -0.9036  0.6301
 5379TIP3   OH231803   4.370   1.639   7.318  0.0608 -0.3173  0.3027
 5379TIP3    H131804   4.439   1.640   7.384 -0.4576  0.2181  0.8390
 5379TIP3    H231805   4.289   1.651   7.367 -0.2762  0.8433 -0.4909
 5380TIP3   OH231806   4.972   3.733   7.459  0.6899  0.6217 -0.4375
 5380TIP3    H131807   5.008   3.644   7.465 -0.3858  0.2429  0.9656
 5380TIP3    H231808   4.985   3.770   7.546 -0.7924  1.0493 -0.3735
 5381TIP3   OH231809   5.466   4.219   0.185 -0.6225 -0.0387  0.8742
 5381TIP3    H131810   5.458   4.312   0.162  0.2103  0.2071  1.5475
 5381TIP3    H231811   5.554   4.194   0.155 -0.7723 -0.5678  0.8646
 5382TIP3   OH231812   0.273   1.668   7.398 -0.0797  0.5775 -0.3258
 5382TIP3    H131813   0.229   1.739   7.351 -1.5576  0.5883  1.0257
 5382TIP3    H231814   0.366   1.678   7.374 -0.4903  1.9172 -1.4797
 5383TIP3   OH231815   3.217   3.844   0.357  0.2179  0.4102  0.1953
 5383TIP3    H131816   3.133   3.799   0.361  0.5800 -0.2555  0.3525
 5383TIP3    H231817   3.195   3.936   0.373 -0.5875  0.3768 -0.5914
 5384TIP3   OH231818   5.263   2.406   1.590 -0.1268  0.1858  0.0472
 5384TIP3    H131819   5.296   2.317   1.599 -0.6403  0.0557  0.7648
 5384TIP3    H231820   5.327   2.451   1.534  1.1764 -0.0927  1.2658
 5385TIP3   OH231821   1.915   6.216   1.590  0.4458 -0.2696  0.0702
 5385TIP3    H131822   1.854   6.191   1.521  0.6577 -0.9745  0.1303
 5385TIP3    H231823   1.977   6.143   1.596  0.6956 -0.0209  0.6970
 5386TIP3   OH231824   1.580   2.344   7.440 -0.5118  0.2735 -0.4246
 5386TIP3    H131825   1.490   2.312   7.439 -0.0403 -1.1256 -0.5148
 5386TIP3    H231826   1.598   2.367   7.349 -1.2984  2.1798 -0.1386
 5387TIP3   OH231827   1.238   1.757   7.618 -0.2275 -0.1772  0.0316
 5387TIP3    H131828   1.264   1.666   7.604 -0.2953 -0.5318  1.9185
 5387TIP3    H231829   1.157   1.752   7.668 -2.1502  0.9595 -2.7299
 5388TIP3   OH231830   1.281   0.773   2.759 -0.1520 -0.4280 -0.1253
 5388TIP3    H131831   1.262   0.681   2.778 -1.2674  0.2020  2.2494
 5388TIP3    H231832   1.223   0.821   2.817 -0.0877  1.8234 -1.8052
 5389TIP3   OH231833   0.127   2.631   0.852  0.1978 -0.6393  0.4656
 5389TIP3    H131834   0.120   2.607   0.760  1.7773 -0.6591  0.3177
 5389TIP3    H231835   0.045   2.603   0.891  0.3807 -2.6863 -0.4973
 5390TIP3   OH231836   1.773   0.194   7.432 -0.1994  0.6410  0.3014
 5390TIP3    H131837   1.854   0.155   7.467 -1.0199  0.0771  1.6421
 5390TIP3    H231838   1.745   0.134   7.364  0.4464  0.7928 -0.1144
 5391TIP3   OH231839   4.049   3.009   0.761  0.2412  0.5848 -0.1891
 5391TIP3    H131840   4.081   2.960   0.837  0.3032  0.4759 -0.2861
 5391TIP3    H231841   4.034   2.943   0.694 -0.0209  0.6578 -0.2022
 5392TIP3   OH231842   6.049   0.219   7.590 -0.4727 -0.0229 -0.5382
 5392TIP3    H131843   6.084   0.176   7.668 -2.9833  0.3929  0.9514
 5392TIP3    H231844   6.122   0.222   7.528  1.6429 -0.3556  1.7906
 5393TIP3   OH231845   4.509   3.247   6.742 -0.6070  0.0135  0.0548
 5393TIP3    H131846   4.493   3.156   6.765  1.2337 -0.1487  0.9171
 5393TIP3    H231847   4.473   3.297   6.815  0.7165 -0.2168  0.9108
 5394TIP3   OH231848   3.935   2.284   6.925  0.7687 -0.3409 -0.4234
 5394TIP3    H131849   3.930   2.195   6.962  0.7282  0.1840  0.8874
 5394TIP3    H231850   3.956   2.340   7.000  1.1939  0.7146 -1.3071
 5395TIP3   OH231851   1.002   5.741   6.475  0.4194  0.3768 -0.0913
 5395TIP3    H131852   1.083   5.705   6.440 -0.1671 -0.9340 -0.1736
 5395TIP3    H231853   0.937   5.726   6.406 -0.5274 -1.3371  1.0801
 5396TIP3   OH231854   0.005   2.170   6.897  0.5195 -0.2090 -0.5965
 5396TIP3    H131855   0.002   2.246   6.955  1.1118  0.4683 -1.4148
 5396TIP3    H231856  -0.086   2.147   6.881  0.1538  2.3645 -2.8742
 5397TIP3   OH231857   2.084   2.501   0.509  0.3926 -0.5302  0.6803
 5397TIP3    H131858   2.172   2.487   0.473  1.0198 -1.0347  2.3521
 5397TIP3    H231859   2.035   2.540   0.436  1.6898 -1.2231 -0.6229
 5398TIP3   OH231860   2.805   0.065   0.863 -0.9477  0.1057 -0.2766
 5398TIP3    H131861   2.898   0.074   0.884 -0.8733 -0.0369 -0.5473
 5398TIP3    H231862   2.798   0.092   0.772 -1.0653 -0.5177 -0.4569
 5399TIP3   OH231863   4.937   1.331   2.650  0.1200 -0.4449  0.0322
 5399TIP3    H131864   4.991   1.255   2.674 -1.6234 -0.7258  3.7417
 5399TIP3    H231865   4.960   1.398   2.714 -2.0688  0.2803  0.1370
 5400TIP3   OH231866   1.791   5.121   1.287 -0.0953  0.0304 -0.0169
 5400TIP3    H131867   1.833   5.186   1.231  1.1302  0.1567  1.0151
 5400TIP3    H231868   1.730   5.172   1.341 -2.2196 -0.2379 -1.9932
 5401TIP3   OH231869   5.610   1.895   2.459  0.1104  0.0562  0.2142
 5401TIP3    H131870   5.637   1.883   2.550 -0.9462 -0.2702  0.4955
 5401TIP3    H231871   5.626   1.811   2.417  0.4005  0.1444  0.1446
 5402TIP3   OH231872   4.866   4.291   2.074 -0.3769 -0.3910 -0.1063
 5402TIP3    H131873   4.927   4.347   2.122 -0.4294  1.7429 -2.3469
 5402TIP3    H231874   4.914   4.208   2.062  0.9778  0.2612  0.5882
 5403TIP3   OH231875   1.371   5.131   7.059 -0.1212  0.3137 -0.0292
 5403TIP3    H131876   1.450   5.116   7.110 -0.5554  1.0070  0.8808
 5403TIP3    H231877   1.402   5.167   6.975  0.4996  1.2504  0.5855
 5404TIP3   OH231878   5.099   4.566   2.496 -0.1743 -0.2592  0.2970
 5404TIP3    H131879   5.040   4.514   2.550  0.8035 -0.1842  1.4634
 5404TIP3    H231880   5.160   4.605   2.558  0.2268  0.8170 -0.7458
 5405TIP3   OH231881   3.375   2.133   7.451 -0.1817  0.1009  0.2431
 5405TIP3    H131882   3.392   2.115   7.543 -1.4600 -0.6709  0.3417
 5405TIP3    H231883   3.449   2.093   7.405  0.2421  0.1188  0.8884
 5406TIP3   OH231884   4.988   0.094   7.640 -0.5594  0.3210  0.0455
 5406TIP3    H131885   4.994   0.110   7.734 -0.5613  1.0060 -0.0609
 5406TIP3    H231886   4.939   0.170   7.606 -0.9195 -0.1240 -0.4495
 5407TIP3   OH231887   5.500   0.111   1.556 -1.1700  0.6138 -0.4021
 5407TIP3    H131888   5.532   0.073   1.638  0.4289  0.0561 -1.2261
 5407TIP3    H231889   5.422   0.160   1.580 -1.1835 -0.1933  1.3165
 5408TIP3   OH231890   2.394   5.807   6.449  0.5420  0.3707  0.3959
 5408TIP3    H131891   2.442   5.874   6.497  0.3249  1.1924 -0.5073
 5408TIP3    H231892   2.347   5.855   6.382  2.6745 -0.9328 -2.2099
 5409TIP3   OH231893   4.770   4.505   6.447 -0.5570 -1.1911 -0.2326
 5409TIP3    H131894   4.774   4.418   6.407  3.1044 -1.4503  0.2699
 5409TIP3    H231895   4.817   4.561   6.385  2.5293 -0.9777  2.0371
 5410TIP3   OH231896   3.607   0.822   1.669 -0.2019  0.4125 -0.1759
 5410TIP3    H131897   3.573   0.736   1.644 -0.4066  0.2107  0.7821
 5410TIP3    H231898   3.685   0.804   1.721 -0.6564  0.7715  0.6561
 5411TIP3   OH231899   0.382   1.104   6.568 -0.2607 -0.1149  0.3452
 5411TIP3    H131900   0.400   1.197   6.551 -2.0046  0.0721 -0.7754
 5411TIP3    H231901   0.445   1.058   6.512  0.0303  0.4090  0.2250
 5412TIP3   OH231902   1.204   5.121   6.757 -0.0428 -0.1405 -0.2939
 5412TIP3    H131903   1.186   5.097   6.848  1.0745  0.8882  0.2174
 5412TIP3    H231904   1.295   5.151   6.757  0.2290 -0.8422 -1.9094
 5413TIP3   OH231905   6.064   5.139   6.377  0.5838 -0.5018  0.0836
 5413TIP3    H131906   6.004   5.147   6.303 -0.1781 -0.2061  0.7122
 5413TIP3    H231907   6.137   5.197   6.355  1.8254 -2.6229 -1.7629
 5414TIP3   OH231908   3.982   3.423   6.815 -0.2026 -0.3664  0.4142
 5414TIP3    H131909   3.960   3.368   6.890 -2.2454 -1.0400 -0.5838
 5414TIP3    H231910   3.961   3.512   6.844 -1.5532 -0.6800  0.4997
 5415TIP3   OH231911   0.182   0.037   6.346  0.2329  0.1350 -0.1861
 5415TIP3    H131912   0.216   0.050   6.257  0.6656  1.8702  0.1873
 5415TIP3    H231913   0.192  -0.057   6.362  0.6579 -0.1226 -1.7625
 5416TIP3   OH231914   6.284   1.738   1.519  0.3497  0.0489  0.7296
 5416TIP3    H131915   6.261   1.725   1.427 -0.9063  3.4844  0.3914
 5416TIP3    H231916   6.378   1.718   1.523  0.7781  1.1337 -1.6803
 5417TIP3   OH231917   0.062   3.684   6.402  0.3172 -0.0827 -0.4745
 5417TIP3    H131918   0.013   3.624   6.345  0.0648 -1.1820  0.8437
 5417TIP3    H231919   0.049   3.770   6.363 -0.8344 -0.6509 -1.4042
 5418TIP3   OH231920   2.779   2.808   0.667  0.1684  0.2601  0.3478
 5418TIP3    H131921   2.743   2.811   0.578 -0.8133  0.1589  0.7232
 5418TIP3    H231922   2.755   2.721   0.700  0.0903  0.4759  0.8808
 5419TIP3   OH231923   0.253   1.501   6.529 -0.0066  0.5396 -0.6020
 5419TIP3    H131924   0.254   1.416   6.483  0.7079 -0.4664  1.1496
 5419TIP3    H231925   0.196   1.556   6.477 -0.8530 -1.1659 -1.5698
 5420TIP3   OH231926   0.309   0.826   6.239  0.3073  0.3999  0.1935
 5420TIP3    H131927   0.338   0.829   6.148  0.5676 -0.7246  0.2185
 5420TIP3    H231928   0.378   0.777   6.284  0.7889  1.9685  1.2576
 5421TIP3   OH231929   3.405   5.913   1.520  0.1587  0.1450  0.4768
 5421TIP3    H131930   3.317   5.900   1.485  0.0017  0.4086  0.7719
 5421TIP3    H231931   3.420   6.007   1.514  1.3485 -0.1141 -1.7910
 5422TIP3   OH231932   5.467   2.276   0.505 -0.1349  0.3069 -0.5232
 5422TIP3    H131933   5.527   2.318   0.443 -1.4967  0.6042 -1.6982
 5422TIP3    H231934   5.383   2.272   0.458 -0.7737 -1.0843  0.6516
 5423TIP3   OH231935   2.781   5.772   1.830 -0.2276 -0.2249 -0.0549
 5423TIP3    H131936   2.783   5.677   1.816 -2.6141 -0.2138 -0.9399
 5423TIP3    H231937   2.829   5.807   1.754  1.2565 -0.6840  0.6187
 5424TIP3   OH231938   1.636   5.958   1.157  0.5245  0.3385  0.0979
 5424TIP3    H131939   1.681   5.880   1.124 -0.7599  0.3662 -1.8691
 5424TIP3    H231940   1.689   6.031   1.126 -0.3393  0.3418 -1.4547
 5425TIP3   OH231941   6.140   4.851   2.200 -0.1218  0.2019  0.3738
 5425TIP3    H131942   6.090   4.862   2.281  0.5337  1.4137  0.6465
 5425TIP3    H231943   6.077   4.871   2.130  0.1634  2.8119  0.7478
 5426TIP3   OH231944   5.573   0.488   7.425 -0.2852  0.4988 -0.8452
 5426TIP3    H131945   5.640   0.451   7.482 -0.1804  1.3592 -0.3923
 5426TIP3    H231946   5.535   0.559   7.476 -0.1190  1.3589 -1.8873
 5427TIP3   OH231947   3.568   4.323   7.480  0.1784 -0.7964 -0.2752
 5427TIP3    H131948   3.495   4.274   7.518  0.2000 -0.4431  0.2282
 5427TIP3    H231949   3.541   4.340   7.390 -0.0303 -1.3282 -0.3177
 5428TIP3   OH231950   0.517   1.670   2.267 -0.7401  0.3229 -0.3681
 5428TIP3    H131951   0.589   1.607   2.277  0.2242  1.4989  0.3855
 5428TIP3    H231952   0.554   1.753   2.297 -2.0957  1.1813 -1.0015
 5429TIP3   OH231953   1.987   5.406   6.059 -0.4035 -0.3027  0.1745
 5429TIP3    H131954   1.892   5.400   6.050 -0.4155  0.6452 -0.4394
 5429TIP3    H231955   2.017   5.315   6.051 -1.0772 -0.3969 -2.0948
 5430TIP3   OH231956   2.298   4.062   0.219 -0.0666 -0.1775 -0.1648
 5430TIP3    H131957   2.387   4.027   0.210  0.5207  1.4407 -1.0609
 5430TIP3    H231958   2.246   4.010   0.158  0.9584  0.9840 -2.1417
 5431TIP3   OH231959   1.330   1.643   6.758  0.4352 -0.1272  0.4738
 5431TIP3    H131960   1.325   1.548   6.761  2.1895 -0.2281  2.1059
 5431TIP3    H231961   1.260   1.673   6.816 -0.2038 -0.4042 -0.1487
 5432TIP3   OH231962   3.468   4.850   0.928 -0.0647 -0.2239 -0.5247
 5432TIP3    H131963   3.397   4.791   0.903 -1.5826  0.9507  0.6917
 5432TIP3    H231964   3.452   4.868   1.021  1.8825  0.0569 -0.2009
 5433TIP3   OH231965   2.034   0.037   2.032 -0.4598  0.4316  0.1215
 5433TIP3    H131966   1.945   0.001   2.037  0.2377 -1.2133  3.5617
 5433TIP3    H231967   2.048   0.077   2.118  1.7499  1.7895 -0.7729
 5434TIP3   OH231968   0.622   5.688   0.791 -0.7341  0.6745  0.1618
 5434TIP3    H131969   0.651   5.718   0.877  0.8743  1.9137 -0.7493
 5434TIP3    H231970   0.614   5.593   0.800  3.1273  0.2639  0.7233
 5435TIP3   OH231971   5.854   2.186   6.473  0.0489  0.0105 -0.0519
 5435TIP3    H131972   5.880   2.251   6.408  0.8674  1.7674  1.9092
 5435TIP3    H231973   5.795   2.233   6.532 -0.5320 -1.4650  0.5987
 5436TIP3   OH231974   1.128   3.000   1.621  0.3078  0.0483 -0.1977
 5436TIP3    H131975   1.130   2.928   1.685 -3.0134  0.0360  0.0976
 5436TIP3    H231976   1.056   2.977   1.562 -0.5348  2.8370 -0.4039
 5437TIP3   OH231977   0.184   5.635   1.300  0.0140  0.1001 -0.1466
 5437TIP3    H131978   0.159   5.543   1.309  1.0895 -0.2994 -1.0542
 5437TIP3    H231979   0.191   5.649   1.205  2.4228  0.3700  0.0060
 5438TIP3   OH231980   2.882   2.982   2.277 -0.4044 -0.1629  0.3436
 5438TIP3    H131981   2.919   3.009   2.361 -1.2682  0.1837  0.6339
 5438TIP3    H231982   2.790   2.962   2.297 -0.9374  1.0511 -0.7099
 5439TIP3   OH231983   3.488   5.160   7.121  0.0841  0.1787 -0.3847
 5439TIP3    H131984   3.486   5.070   7.155 -0.3189  0.3882  0.1557
 5439TIP3    H231985   3.546   5.155   7.046  2.7949  0.1155  1.5598
 5440TIP3   OH231986   4.165   4.271   7.583 -0.0967 -0.0176  0.5301
 5440TIP3    H131987   4.209   4.315   7.656  2.0868  1.4293 -1.4879
 5440TIP3    H231988   4.202   4.183   7.581  1.0243  0.4433  0.2673
 5441TIP3   OH231989   5.620   2.229   1.840  0.6708 -0.2710  0.4100
 5441TIP3    H131990   5.636   2.236   1.934  1.6209 -0.0197  0.2342
 5441TIP3    H231991   5.533   2.189   1.834  0.1288  0.6832  1.3952
 5442TIP3   OH231992   5.925   3.847   7.736 -0.2569 -0.0696 -0.0088
 5442TIP3    H131993   5.912   3.920   7.677  0.5533  0.0234 -0.0717
 5442TIP3    H231994   5.869   3.777   7.701 -0.7521  0.3921 -0.1493
 5443TIP3   OH231995   4.738   4.492   5.788 -0.8392 -0.3121  0.1652
 5443TIP3    H131996   4.825   4.528   5.804 -0.7123  0.3140 -1.6074
 5443TIP3    H231997   4.684   4.569   5.768 -0.2149 -0.8941 -5.2837
 5444TIP3   OH231998   5.522   5.570   1.782 -0.0346  0.7069  0.3570
 5444TIP3    H131999   5.461   5.584   1.855  0.4982 -0.3834  1.0401
 5444TIP3    H232000   5.495   5.634   1.716 -1.3047  0.9040  1.0246
 5445TIP3   OH232001   2.864   0.138   2.363 -0.0836  0.2228  0.4194
 5445TIP3    H132002   2.873   0.071   2.431  2.0768 -0.5485 -0.5489
 5445TIP3    H232003   2.872   0.221   2.410 -1.5945 -0.1880  1.4707
 5446TIP3   OH232004   4.302   1.407   0.884  0.1659  0.6304  0.2848
 5446TIP3    H132005   4.219   1.361   0.890 -0.0022  1.1343  2.5422
 5446TIP3    H232006   4.299   1.450   0.798 -0.7353 -1.4418 -0.7943
 5447TIP3   OH232007   0.776   3.247   2.180  0.3598  0.1697  0.3282
 5447TIP3    H132008   0.869   3.223   2.184 -0.5908 -4.4706  0.8531
 5447TIP3    H232009   0.740   3.215   2.263 -1.7967  1.5853  0.0019
 5448TIP3   OH232010   4.085   4.540   2.070 -0.1151 -0.3249 -0.4059
 5448TIP3    H132011   4.032   4.618   2.054 -0.4905 -0.8629 -2.0173
 5448TIP3    H232012   4.028   4.484   2.124  0.5974  0.9413  1.7312
 5449TIP3   OH232013   5.569   2.246   7.486 -0.1371 -0.2531  0.3624
 5449TIP3    H132014   5.505   2.176   7.500  0.4427 -0.2243  4.0523
 5449TIP3    H232015   5.653   2.204   7.500  0.4494  0.5601 -0.5847
 5450TIP3   OH232016   3.422   3.631   1.843 -0.1530  0.0264  0.4748
 5450TIP3    H132017   3.441   3.669   1.757 -0.4183  1.8656  1.1896
 5450TIP3    H232018   3.442   3.538   1.832 -2.4342 -0.2801 -2.2553
 5451TIP3   OH232019   1.272   3.493   5.795  0.4220 -0.2972  0.6994
 5451TIP3    H132020   1.205   3.425   5.793 -0.4233  0.4639  2.0024
 5451TIP3    H232021   1.303   3.495   5.885 -0.5244  1.9030  1.0396
 5452TIP3   OH232022   5.760   1.110   0.788 -0.3181 -0.1925 -0.2899
 5452TIP3    H132023   5.850   1.079   0.775  0.3630  2.0369 -1.4054
 5452TIP3    H232024   5.756   1.192   0.739 -2.6650  0.3068  0.6298
 5453TIP3   OH232025   1.295   5.936   6.099 -0.4586  0.4938 -0.0824
 5453TIP3    H132026   1.255   6.006   6.149  1.2091  2.2232 -1.0290
 5453TIP3    H232027   1.377   5.974   6.066  1.5983 -2.5450  1.0991
 5454TIP3   OH232028   4.084   5.676   0.543  0.8949  0.4723 -0.6435
 5454TIP3    H132029   4.022   5.689   0.470 -0.7330 -2.7137 -0.0359
 5454TIP3    H232030   4.165   5.648   0.500  1.7087  3.5927 -1.3923
 5455TIP3   OH232031   2.851   2.189   7.618 -0.0815  0.0197 -0.1790
 5455TIP3    H132032   2.809   2.244   7.683 -0.9334 -0.0889 -0.6267
 5455TIP3    H232033   2.786   2.180   7.548  1.5907  2.0220 -2.1325
 5456TIP3   OH232034   3.262   1.731   2.787  0.8066 -0.4985 -0.4318
 5456TIP3    H132035   3.297   1.813   2.822  3.3974 -1.6472 -0.1152
 5456TIP3    H232036   3.293   1.728   2.697 -1.7329  0.1544 -1.4088
 5457TIP3   OH232037   3.192   6.139   1.066  0.0582  0.0613 -0.2067
 5457TIP3    H132038   3.120   6.078   1.082 -1.7582  2.0356 -0.4756
 5457TIP3    H232039   3.235   6.104   0.988  0.1381 -1.7746  0.6065
 5458TIP3   OH232040   0.814   5.817   6.672 -0.4053  0.1990  0.1445
 5458TIP3    H132041   0.798   5.722   6.666 -1.2768  0.4086 -1.3131
 5458TIP3    H232042   0.883   5.834   6.608 -0.4156  0.5838  0.2339
 5459TIP3   OH232043   0.784   3.445   1.600 -0.4487  0.0321 -0.6047
 5459TIP3    H132044   0.827   3.530   1.590  0.0579 -0.0743  0.6205
 5459TIP3    H232045   0.855   3.381   1.598 -0.4799 -0.1290  1.6053
 5460TIP3   OH232046   0.867   5.399   0.597  0.1504  0.2431  0.8101
 5460TIP3    H132047   0.848   5.309   0.571  2.4578  0.6316 -2.8957
 5460TIP3    H232048   0.961   5.409   0.584 -0.1819  3.4579 -0.0095
 5461TIP3   OH232049   1.624   1.955   7.044 -0.2433 -0.3020  0.8708
 5461TIP3    H132050   1.717   1.952   7.024 -0.2960  0.8352  0.3791
 5461TIP3    H232051   1.611   2.042   7.083 -1.1363 -0.3616  0.7222
 5462TIP3   OH232052   3.589   1.960   1.430 -0.1923  0.3506  0.0505
 5462TIP3    H132053   3.551   1.998   1.509  2.1472 -0.6493  1.8232
 5462TIP3    H232054   3.640   1.885   1.463  0.6742 -0.2613 -2.4671
 5463TIP3   OH232055   3.040   1.906   6.382  0.2315  0.1646 -0.2154
 5463TIP3    H132056   3.078   1.925   6.467 -0.9420  1.2598  0.1073
 5463TIP3    H232057   3.108   1.860   6.334  1.6039  1.2280  0.6423
 5464TIP3   OH232058   2.076   3.492   0.924  0.2906 -0.1116 -0.1772
 5464TIP3    H132059   2.082   3.563   0.987 -0.4351  0.2118 -0.4664
 5464TIP3    H232060   2.113   3.528   0.843  1.0213 -0.4563 -0.0118
 5465TIP3   OH232061   2.976   2.801   0.863 -0.5995 -0.5358  0.9967
 5465TIP3    H132062   2.889   2.808   0.903 -0.7097  1.5608  0.5338
 5465TIP3    H232063   2.960   2.811   0.769  0.0677 -0.8615  0.8456
 5466TIP3   OH232064   4.822   6.028   0.533 -0.3023  0.3376  0.3550
 5466TIP3    H132065   4.904   5.979   0.537  0.4898  1.6944  1.9248
 5466TIP3    H232066   4.759   5.973   0.579 -0.2470 -0.6169 -0.6727
 5467TIP3   OH232067   2.776   4.428   1.699 -0.1147 -0.2741  0.1153
 5467TIP3    H132068   2.724   4.379   1.763  0.7950  0.9804  1.8931
 5467TIP3    H232069   2.863   4.388   1.703  0.6322  1.3931  1.5755
 5468TIP3   OH232070   5.818   0.482   1.515  0.3630 -0.6047  0.2925
 5468TIP3    H132071   5.878   0.526   1.454  0.6735 -2.2357 -0.6369
 5468TIP3    H232072   5.774   0.554   1.561  1.4042  0.6553 -0.5948
 5469TIP3   OH232073   0.701   2.975   0.233 -0.0538 -0.3637 -0.4324
 5469TIP3    H132074   0.788   2.970   0.193  2.2143 -2.4056  4.0357
 5469TIP3    H232075   0.697   3.064   0.269  0.3081 -0.3253 -0.4792
 5470TIP3   OH232076   0.444   1.414   7.625  0.0560 -0.4631 -0.0428
 5470TIP3    H132077   0.483   1.326   7.618 -1.3034 -0.9877 -1.5068
 5470TIP3    H232078   0.352   1.401   7.604  0.1815  1.6102 -2.2978
 5471TIP3   OH232079   6.167   4.472   0.320 -0.3697  0.3951 -0.1979
 5471TIP3    H132080   6.160   4.479   0.225 -0.3239  1.2819 -0.1410
 5471TIP3    H232081   6.115   4.545   0.354 -0.4860  0.0183  0.4675
 5472TIP3   OH232082   1.104   4.181   6.675 -0.6340  0.1288 -0.5053
 5472TIP3    H132083   1.092   4.266   6.631  1.0094  0.1413 -0.9778
 5472TIP3    H232084   1.198   4.171   6.683 -0.8371 -1.0327  0.8256
 5473TIP3   OH232085   4.088   0.259   0.457 -0.7685 -0.2743  0.6440
 5473TIP3    H132086   4.183   0.247   0.466 -0.4331  0.9368 -0.8925
 5473TIP3    H232087   4.065   0.321   0.526 -0.1414  0.7026 -0.0102
 5474TIP3   OH232088   2.401   0.275   1.707 -0.3292  0.2966  0.3107
 5474TIP3    H132089   2.321   0.279   1.759 -0.3167  0.0959  0.3462
 5474TIP3    H232090   2.401   0.187   1.670  1.1725 -0.6502  2.3680
 5475TIP3   OH232091   4.296   0.471   6.125  0.4015 -0.1335  0.1010
 5475TIP3    H132092   4.347   0.551   6.140 -1.0943  0.8255  0.2518
 5475TIP3    H232093   4.238   0.493   6.052  0.8510 -1.5296 -0.7104
 5476TIP3   OH232094   0.416   3.266   6.358  0.1686  0.1326 -0.2493
 5476TIP3    H132095   0.328   3.265   6.320  0.7983 -3.4155 -2.0258
 5476TIP3    H232096   0.410   3.206   6.433  1.0772 -0.3686 -0.5584
 5477TIP3   OH232097   4.894   2.330   0.283  0.0257  0.3724  0.0857
 5477TIP3    H132098   4.856   2.289   0.361  1.1092 -1.0917 -0.1077
 5477TIP3    H232099   4.895   2.424   0.303  2.1754 -0.0656  2.7681
 5478TIP3   OH232100   5.799   0.660   2.567  0.0419  0.5138  0.0105
 5478TIP3    H132101   5.811   0.673   2.661 -0.4644  0.4312  0.0896
 5478TIP3    H232102   5.886   0.636   2.534  0.5803  2.1108  0.1855
 5479TIP3   OH232103   5.043   2.556   7.709  0.1740  0.5689  0.0253
 5479TIP3    H132104   5.010   2.467   7.693 -0.2023  0.5765  0.7249
 5479TIP3    H232105   5.136   2.551   7.687 -0.1661  0.4431 -1.5738
 5480TIP3   OH232106   0.018   2.114   6.154  0.5558  0.2046 -0.4155
 5480TIP3    H132107   0.004   2.054   6.081  2.7622 -2.2397  1.0319
 5480TIP3    H232108  -0.069   2.151   6.171 -0.7037 -1.7922 -2.0372
 5481TIP3   OH232109   2.860   4.106   1.981 -0.6846  0.3664  0.2066
 5481TIP3    H132110   2.875   4.152   2.064 -1.2022  0.0339  0.4907
 5481TIP3    H232111   2.934   4.045   1.975  0.2172  1.4781 -0.3622
 5482TIP3   OH232112   4.214   3.886   0.653  0.3722  0.5399 -0.1865
 5482TIP3    H132113   4.301   3.854   0.632  0.1670 -0.1352 -0.0277
 5482TIP3    H232114   4.156   3.840   0.593 -0.1412 -0.8884  1.3201
 5483TIP3   OH232115   4.618   3.186   7.708 -0.0213  0.5720  0.6906
 5483TIP3    H132116   4.624   3.108   7.652  1.3208  1.3938 -0.3566
 5483TIP3    H232117   4.528   3.217   7.695  0.3276  0.8906 -1.2482
 5484TIP3   OH232118   1.069   5.937   0.295 -0.3416  0.1529  0.0176
 5484TIP3    H132119   1.107   5.912   0.379  3.4711  0.8686 -1.2926
 5484TIP3    H232120   1.060   6.032   0.300 -2.1496 -0.0073  0.3148
 5485TIP3   OH232121   1.272   5.458   0.848  0.5379  0.4826  0.0737
 5485TIP3    H132122   1.317   5.384   0.807 -1.0255 -0.0942 -0.6928
 5485TIP3    H232123   1.192   5.420   0.885 -0.4238  1.8043 -0.5545
 5486TIP3   OH232124   4.389   1.990   7.414  0.0858  0.5493  0.6789
 5486TIP3    H132125   4.396   1.935   7.492 -2.5242  0.2446  0.7714
 5486TIP3    H232126   4.296   2.012   7.408  0.0806  0.1577 -2.6085
 5487TIP3   OH232127   4.689   0.858   1.486 -0.0333  0.3802 -0.4036
 5487TIP3    H132128   4.696   0.936   1.431 -0.5056  0.3607 -0.4971
 5487TIP3    H232129   4.680   0.785   1.425 -1.3339  0.4358 -0.3101
 5488TIP3   OH232130   4.020   4.079   7.155 -0.4521 -0.3259  0.1634
 5488TIP3    H132131   3.941   4.086   7.209  0.6529  2.1356  1.6222
 5488TIP3    H232132   4.077   4.018   7.202  0.5832  1.9434  2.0530
 5489TIP3   OH232133   5.045   4.600   7.117 -0.2778 -0.1401 -0.5226
 5489TIP3    H132134   4.974   4.572   7.061  0.2683 -1.0455 -0.7685
 5489TIP3    H232135   5.112   4.532   7.109  0.0140 -0.0494  0.8388
 5490TIP3   OH232136   3.919   1.918   0.647  0.4546 -0.4230  0.0330
 5490TIP3    H132137   3.982   1.852   0.677  0.7820 -1.1562 -2.0840
 5490TIP3    H232138   3.842   1.867   0.621  0.7924 -0.0542 -1.8317
 5491TIP3   OH232139   1.125   2.538   0.405 -0.5221 -0.1253  0.2573
 5491TIP3    H132140   1.185   2.464   0.393 -1.9083 -1.5620  1.6149
 5491TIP3    H232141   1.091   2.526   0.494 -4.3081 -0.5763 -1.0630
 5492TIP3   OH232142   2.022   5.946   0.089 -0.0819  0.3761  0.5820
 5492TIP3    H132143   2.034   5.887   0.163 -0.5151  0.0382  0.3918
 5492TIP3    H232144   1.927   5.950   0.076 -0.0106  0.3747  0.0061
 5493TIP3   OH232145   0.955   1.967   0.326  0.1581 -0.3984  0.3145
 5493TIP3    H132146   0.904   2.025   0.269 -0.8529 -0.3701  1.2358
 5493TIP3    H232147   0.935   1.879   0.294 -0.1248 -0.3639  0.3955
 5494TIP3   OH232148   3.197   5.483   7.168 -0.0092  0.3792  0.3427
 5494TIP3    H132149   3.173   5.408   7.113 -0.9426  0.8919  0.0272
 5494TIP3    H232150   3.156   5.558   7.126  2.1363  1.3307 -0.1787
 5495TIP3   OH232151   3.454   5.137   7.435 -0.1130  0.1464 -0.2725
 5495TIP3    H132152   3.394   5.077   7.390  2.6844 -1.6528 -1.8944
 5495TIP3    H232153   3.436   5.223   7.395 -0.0699 -0.7898 -2.4724
 5496TIP3   OH232154   1.240   3.010   7.170 -0.1871  0.2092  0.4530
 5496TIP3    H132155   1.276   2.945   7.110  0.5290  0.1374  0.9409
 5496TIP3    H232156   1.187   2.959   7.232 -2.2025  0.4432 -0.9896
 5497TIP3   OH232157   1.426   0.810   7.711  0.1814 -0.0723 -0.2751
 5497TIP3    H132158   1.447   0.769   7.628 -0.7866 -1.3448  0.0839
 5497TIP3    H232159   1.454   0.747   7.777  0.8869  0.8943  0.3922
 5498TIP3   OH232160   0.790   5.173   6.059  0.0904  0.6511 -0.3305
 5498TIP3    H132161   0.723   5.221   6.010 -1.5980 -0.6491  0.5867
 5498TIP3    H232162   0.826   5.110   5.996  0.0954  0.9994 -0.6820
 5499TIP3   OH232163   3.477   5.979   1.802 -0.0787  0.1513  0.0077
 5499TIP3    H132164   3.485   5.890   1.836  1.2947 -0.0990 -0.8979
 5499TIP3    H232165   3.469   5.968   1.707  3.5395  1.0251 -0.5512
 5500TIP3   OH232166   2.602   1.874   1.049  0.3096  0.0807 -0.2696
 5500TIP3    H132167   2.654   1.794   1.048 -0.3208 -0.3348 -0.6878
 5500TIP3    H232168   2.541   1.864   0.976  0.0495  0.8262 -0.1648
 5501TIP3   OH232169   5.560   5.959   0.044 -0.2090 -0.3930 -0.0876
 5501TIP3    H132170   5.648   5.923   0.032  0.2853  0.6546  0.2218
 5501TIP3    H232171   5.532   5.927   0.129 -0.5368 -1.5252 -0.6097
 5502TIP3   OH232172   2.447   2.615   0.677  0.3810 -0.2634 -0.0167
 5502TIP3    H132173   2.430   2.556   0.604 -0.1132  0.0710 -0.1819
 5502TIP3    H232174   2.373   2.601   0.737 -0.1430  0.7098 -0.4109
 5503TIP3   OH232175   5.191   4.772   2.001 -0.0499  0.0421  0.1508
 5503TIP3    H132176   5.171   4.774   2.095  2.8113  0.9297  0.8547
 5503TIP3    H232177   5.109   4.746   1.959 -1.1812 -1.2930  2.9495
 5504TIP3   OH232178   1.106   5.412   0.276  0.1044  0.2911  0.2007
 5504TIP3    H132179   1.041   5.478   0.299  1.3131  0.7048  2.8561
 5504TIP3    H232180   1.158   5.453   0.207 -0.7966  1.0343 -0.0531
 5505TIP3   OH232181   6.001   3.588   6.853 -0.1253 -0.9353 -0.0080
 5505TIP3    H132182   6.025   3.620   6.766  1.7909  0.3037  0.9136
 5505TIP3    H232183   5.992   3.667   6.906 -1.0112 -1.6869  1.0065
 5506TIP3   OH232184   3.451   0.504   6.575  0.3110  0.0897 -0.1109
 5506TIP3    H132185   3.529   0.469   6.532  0.3245 -1.4394  1.0711
 5506TIP3    H232186   3.466   0.598   6.578  2.2945 -0.1844  0.3940
 5507TIP3   OH232187   2.021   4.887   7.406 -0.0890 -0.2073  0.1085
 5507TIP3    H132188   2.000   4.974   7.372  1.2126  0.4988  1.0177
 5507TIP3    H232189   2.068   4.844   7.335 -2.8758 -1.1921 -1.3213
 5508TIP3   OH232190   3.799   0.849   1.385  0.0209  0.5424  0.1876
 5508TIP3    H132191   3.788   0.803   1.469  0.0105 -0.8196 -0.5310
 5508TIP3    H232192   3.831   0.935   1.409  2.0454 -0.5034  1.4947
 5509TIP3   OH232193   0.630   3.928   2.521  0.2075 -0.5680 -0.1767
 5509TIP3    H132194   0.568   3.945   2.451 -0.1000 -1.9801 -0.2840
 5509TIP3    H232195   0.715   3.922   2.476  0.2059 -0.1724 -0.2382
 5510TIP3   OH232196   2.723   1.230   0.879 -0.3016 -0.3829 -0.3872
 5510TIP3    H132197   2.758   1.318   0.892 -0.3712 -0.3783 -0.2413
 5510TIP3    H232198   2.798   1.172   0.896 -0.3080 -0.3622 -0.2902
 5511TIP3   OH232199   1.990   1.881   0.533  0.3399 -0.7621  0.5543
 5511TIP3    H132200   2.002   1.927   0.450  2.2140 -0.4798  0.9341
 5511TIP3    H232201   1.962   1.949   0.594  2.8955 -0.0523  1.0616
 5512TIP3   OH232202   6.204   3.566   5.838 -0.4170 -0.2166  0.4811
 5512TIP3    H132203   6.231   3.657   5.842 -0.7279  0.0019 -1.5409
 5512TIP3    H232204   6.109   3.569   5.825 -0.3213 -0.7895 -0.4541
 5513TIP3   OH232205   2.809   1.765   1.481 -0.5419  0.4469  0.2849
 5513TIP3    H132206   2.723   1.775   1.522 -0.7969  1.5683 -0.4756
 5513TIP3    H232207   2.805   1.681   1.436 -0.6659 -0.2540  1.5682
 5514TIP3   OH232208   0.218   2.943   6.856  0.4891  0.0362 -0.3806
 5514TIP3    H132209   0.197   2.933   6.763 -1.3497 -0.8681  0.0787
 5514TIP3    H232210   0.268   2.864   6.878  1.4331  0.5264 -0.7006
 5515TIP3   OH232211   0.840   4.648   6.743 -0.2499  0.2792 -0.2239
 5515TIP3    H132212   0.799   4.667   6.659 -1.1348  0.6023  0.2684
 5515TIP3    H232213   0.905   4.717   6.754 -1.3062  1.2421  0.1297
 5516TIP3   OH232214   2.374   4.838   2.566 -0.1200  0.9136  0.5640
 5516TIP3    H132215   2.363   4.928   2.536 -1.2481  0.8915  0.8781
 5516TIP3    H232216   2.326   4.785   2.502 -1.4937  0.7614  1.6792
 5517TIP3   OH232217   4.137   0.458   1.829 -0.2528  0.2974 -0.1331
 5517TIP3    H132218   4.231   0.451   1.816 -0.4103  0.9588 -1.9051
 5517TIP3    H232219   4.127   0.517   1.904  0.7310 -0.3060  0.4850
 5518TIP3   OH232220   2.990   4.928   7.530  0.3947  0.0336 -0.0847
 5518TIP3    H132221   3.079   4.912   7.499  0.9745  1.6946  0.5874
 5518TIP3    H232222   3.000   4.953   7.622 -0.7298  0.5184 -0.0751
 5519TIP3   OH232223   0.143   1.434   0.310  0.1361 -0.3085  0.0219
 5519TIP3    H132224   0.183   1.348   0.319  2.1311  0.5352 -0.2230
 5519TIP3    H232225   0.075   1.422   0.243 -0.1520 -1.8254  0.5469
 5520TIP3   OH232226   4.187   4.841   6.893  0.2392 -0.1366 -0.2324
 5520TIP3    H132227   4.222   4.805   6.811 -0.9462  0.3569 -0.9807
 5520TIP3    H232228   4.168   4.764   6.947  1.6353 -0.4478 -0.1308
 5521TIP3   OH232229   2.481   6.112   7.061  0.1601 -0.4544  0.3385
 5521TIP3    H132230   2.532   6.149   6.989 -1.3027  0.5796 -0.2149
 5521TIP3    H232231   2.543   6.055   7.107  1.2263 -0.9114 -1.5344
 5522TIP3   OH232232   3.686   3.256   6.885  0.5293 -0.2137 -0.1219
 5522TIP3    H132233   3.729   3.318   6.943  1.7018 -2.4228  1.5357
 5522TIP3    H232234   3.723   3.171   6.909 -1.1152 -1.6112 -2.1361
 5523TIP3   OH232235   0.493   4.682   6.346 -0.4301  0.0809 -0.3733
 5523TIP3    H132236   0.576   4.636   6.338 -1.0247 -1.1806  0.3715
 5523TIP3    H232237   0.488   4.736   6.267  0.2187 -1.3168 -1.4229
 5524TIP3   OH232238   1.234   5.427   1.797  0.1519 -0.3906 -0.7070
 5524TIP3    H132239   1.219   5.514   1.759  0.6074 -0.3756 -0.8581
 5524TIP3    H232240   1.209   5.436   1.889  1.8340  0.3854 -0.2808
 5525TIP3   OH232241   0.410   4.502   1.953 -0.0325  0.8529 -0.6938
 5525TIP3    H132242   0.408   4.519   2.047  0.5290 -1.0893 -0.2811
 5525TIP3    H232243   0.338   4.554   1.918  0.0801  2.0370  0.7116
 5526TIP3   OH232244   4.174   2.587   6.168  0.0342 -0.3712  0.8096
 5526TIP3    H132245   4.213   2.673   6.183 -1.0309  0.7237 -2.0771
 5526TIP3    H232246   4.081   2.605   6.157 -0.2776 -1.9781  0.6369
 5527TIP3   OH232247   6.069   3.197   7.557  0.0016 -0.2271  0.2635
 5527TIP3    H132248   5.990   3.251   7.564  1.3159  1.7716  0.2936
 5527TIP3    H232249   6.119   3.218   7.635  1.5245  0.1531 -0.7837
 5528TIP3   OH232250   5.320   5.033   0.483  1.0257 -0.3195 -0.1784
 5528TIP3    H132251   5.410   5.006   0.465  0.9799 -1.1625  0.7603
 5528TIP3    H232252   5.328   5.125   0.509  1.3095  0.3331 -2.4010
 5529TIP3   OH232253   3.003   0.012   2.933 -0.0129 -0.0415 -0.8668
 5529TIP3    H132254   3.079   0.019   2.990 -1.0203  0.7251  0.4518
 5529TIP3    H232255   3.004  -0.078   2.902  0.7379 -0.3967  0.1481
 5530TIP3   OH232256   2.426   3.575   6.689  0.6704 -0.1432 -0.6072
 5530TIP3    H132257   2.432   3.666   6.658 -0.8697  0.9313  1.9815
 5530TIP3    H232258   2.332   3.561   6.704  0.9868 -1.8271  0.0026
 5531TIP3   OH232259   5.228   5.932   1.669 -0.3369  0.3998  0.5873
 5531TIP3    H132260   5.261   6.022   1.671 -1.3161  0.7574  1.2680
 5531TIP3    H232261   5.289   5.883   1.724 -0.1142  0.7542  0.6592
 5532TIP3   OH232262   1.540   0.638   7.518  0.4034 -0.1328 -0.6178
 5532TIP3    H132263   1.586   0.563   7.556 -1.6042 -1.0434  0.1293
 5532TIP3    H232264   1.527   0.614   7.426 -0.9445 -1.1124 -0.1986
 5533TIP3   OH232265   5.512   5.389   1.461  0.0117 -0.2677 -0.1303
 5533TIP3    H132266   5.483   5.306   1.499 -0.5094 -0.1247 -0.2100
 5533TIP3    H232267   5.435   5.423   1.415  1.2477 -1.6949 -3.5848
   6.30863   6.30863   7.76148
