;;
;; Generated by CHARMM-GUI FF-Converter
;;
;; Correspondance:
;; jul316@lehigh.edu or wonpil@lehigh.edu
;;
;; The main GROMACS topology file
;;

; Include forcefield parameters
#include "toppar/forcefield.itp"
#include "toppar/lig_cgenff_params.itp"
#include "toppar/LIG.itp"
#include "toppar/POPC.itp"
#include "toppar/POT.itp"
#include "toppar/CLA.itp"
#include "toppar/TIP3.itp"

[ system ]
; Name
Title in water

[ molecules ]
; Compound	#mols
POPC  	         120
POT   	          13
CLA   	          13
TIP3           5387
