;; Ligand-specific CGenFF parameters, extracted automatically by
;; extract_lig_params.py from a merged CHARMM-GUI forcefield.itp.
;;
;; Contains ONLY lines whose atom-type columns belong to the ligand's own
;; CGenFF type set -- no water, ion, or lipid parameters are duplicated
;; here, since every line was required to be self-contained to the ligand.
;;
;; Include this file BEFORE the ligand's own moleculetype (e.g. LIG.itp).

[ atomtypes ]
    HGA2     1     1.0080      0.090     A    2.38760856462e-01    1.464400e-01
    HGA3     1     1.0080      0.090     A    2.38760856462e-01    1.004160e-01
    HGA4     1     1.0080      0.150     A    2.22724679535e-01    1.297040e-01
    HGP1     1     1.0080      0.420     A    4.00013524445e-02    1.924640e-01
   HGR61     1     1.0080      0.116     A    2.42003727796e-01    1.255200e-01
   CG2D1     6    12.0110      0.006     A    3.72395664183e-01    2.845120e-01
  CG2D1O     6    12.0110      0.202     A    3.72395664183e-01    2.845120e-01
  CG2DC1     6    12.0110     -0.168     A    3.72395664183e-01    2.845120e-01
   CG2O5     6    12.0110      0.087     A    3.56359487256e-01    3.765600e-01
  CG2R61     6    12.0110      0.340     A    3.55005321205e-01    2.928800e-01
   CG321     6    12.0110     -0.064     A    3.58141284692e-01    2.343040e-01 ;   3.38541512893e-01    4.184000e-02
   CG331     6    12.0110     -0.266     A    3.65268474438e-01    3.263520e-01 ;   3.38541512893e-01    4.184000e-02
   OG2D3     8    15.9994     -0.387     A    3.02905564168e-01    2.092000e-01 ;   2.49451641079e-01    5.020800e-01
   OG311     8    15.9994     -0.599     A    3.14487247504e-01    8.037464e-01

[ bondtypes ]
  CG2D1   CG2D1     1  1.340000e-01  3.681920e+05
  CG2D1   CG321     1  1.502000e-01  3.054320e+05
  CG2D1   CG331     1  1.504000e-01  3.204944e+05
  CG2D1    HGA4     1  1.100000e-01  3.016664e+05
 CG2D1O  CG2DC1     1  1.340000e-01  3.681920e+05
 CG2D1O   CG2O5     1  1.461800e-01  1.968154e+05
 CG2D1O   OG311     1  1.360000e-01  3.221680e+05
 CG2DC1   CG2O5     1  1.480000e-01  2.510400e+05
 CG2DC1   CG321     1  1.502000e-01  3.054320e+05
  CG2O5  CG2R61     1  1.460000e-01  2.125472e+05
  CG2O5   OG2D3     1  1.230000e-01  5.857600e+05
 CG2R61  CG2R61     1  1.375000e-01  2.552240e+05
 CG2R61   CG331     1  1.490000e-01  1.924640e+05
 CG2R61   HGR61     1  1.080000e-01  2.845120e+05
  CG321    HGA2     1  1.111000e-01  2.585712e+05
  CG331    HGA3     1  1.111000e-01  2.694496e+05
  OG311    HGP1     1  9.600000e-02  4.560560e+05

[ pairtypes ]
   HGA2   CG321     1  2.88651184677e-01  7.82754725313e-02
   HGA2   CG331     1  2.88651184677e-01  7.82754725313e-02
   HGA2   OG2D3     1  2.44106248770e-01  2.71154190821e-01
   HGA3   CG321     1  2.88651184677e-01  6.48182492821e-02
   HGA3   CG331     1  2.88651184677e-01  6.48182492821e-02
   HGA3   OG2D3     1  2.44106248770e-01  2.24537002029e-01
   HGA4   CG321     1  2.80633096214e-01  7.36669217492e-02
   HGA4   CG331     1  2.80633096214e-01  7.36669217492e-02
   HGA4   OG2D3     1  2.36088160307e-01  2.55189702614e-01
   HGP1   CG321     1  1.89271432669e-01  8.97368027066e-02
   HGP1   CG331     1  1.89271432669e-01  8.97368027066e-02
   HGP1   OG2D3     1  1.44726496762e-01  3.10857403193e-01
  HGR61   CG321     1  2.90272620344e-01  7.24690057887e-02
  HGR61   CG331     1  2.90272620344e-01  7.24690057887e-02
  HGR61   OG2D3     1  2.45727684437e-01  2.51040000000e-01
  CG2D1   CG321     1  3.55468588538e-01  1.09105371453e-01
  CG2D1   CG331     1  3.55468588538e-01  1.09105371453e-01
  CG2D1   OG2D3     1  3.10923652631e-01  3.77952093472e-01
 CG2D1O   CG321     1  3.55468588538e-01  1.09105371453e-01
 CG2D1O   CG331     1  3.55468588538e-01  1.09105371453e-01
 CG2D1O   OG2D3     1  3.10923652631e-01  3.77952093472e-01
 CG2DC1   CG321     1  3.55468588538e-01  1.09105371453e-01
 CG2DC1   CG331     1  3.55468588538e-01  1.09105371453e-01
 CG2DC1   OG2D3     1  3.10923652631e-01  3.77952093472e-01
  CG2O5   CG321     1  3.47450500075e-01  1.25520000000e-01
  CG2O5   CG331     1  3.47450500075e-01  1.25520000000e-01
  CG2O5   OG2D3     1  3.02905564168e-01  4.34814034732e-01
 CG2R61   CG321     1  3.46773417049e-01  1.10698234855e-01
 CG2R61   CG331     1  3.46773417049e-01  1.10698234855e-01
 CG2R61   OG2D3     1  3.02228481142e-01  3.83469934154e-01
  CG321   CG321     1  3.38541512893e-01  4.18400000000e-02
  CG321   CG331     1  3.38541512893e-01  4.18400000000e-02
  CG321   OG2D3     1  2.93996576986e-01  1.44938011577e-01
  CG321   OG311     1  3.26514380198e-01  1.83381431383e-01
  CG331   CG331     1  3.38541512893e-01  4.18400000000e-02
  CG331   OG2D3     1  2.93996576986e-01  1.44938011577e-01
  CG331   OG311     1  3.26514380198e-01  1.83381431383e-01
  OG2D3   OG2D3     1  2.49451641079e-01  5.02080000000e-01
  OG2D3   OG311     1  2.81969444291e-01  6.35251912639e-01

[ angletypes ]
  CG2D1   CG2D1   CG321     5  1.2350000e+02  4.0166400e+02  0.0000000e+00  0.0000000e+00
  CG2D1   CG2D1   CG331     5  1.2350000e+02  4.0166400e+02  0.0000000e+00  0.0000000e+00
  CG2D1   CG2D1    HGA4     5  1.1950000e+02  4.3513600e+02  0.0000000e+00  0.0000000e+00
  CG2D1   CG321  CG2DC1     5  1.0800000e+02  1.0460000e+03  0.0000000e+00  0.0000000e+00
  CG2D1   CG321    HGA2     5  1.1150000e+02  3.7656000e+02  0.0000000e+00  0.0000000e+00
  CG2D1   CG331    HGA3     5  1.1150000e+02  3.5145600e+02  0.0000000e+00  0.0000000e+00
 CG2D1O  CG2DC1   CG2O5     5  1.1300000e+02  5.4392000e+02  0.0000000e+00  0.0000000e+00
 CG2D1O  CG2DC1   CG321     5  1.2650000e+02  3.6400800e+02  0.0000000e+00  0.0000000e+00
 CG2D1O   CG2O5  CG2R61     5  1.0305440e+02  5.4785296e+02  0.0000000e+00  0.0000000e+00
 CG2D1O   CG2O5   OG2D3     5  1.2180000e+02  5.8576000e+02  0.0000000e+00  0.0000000e+00
 CG2D1O   OG311    HGP1     5  1.0572000e+02  5.4919184e+02  0.0000000e+00  0.0000000e+00
 CG2DC1  CG2D1O   CG2O5     5  1.0806000e+02  5.0208000e+02  0.0000000e+00  0.0000000e+00
 CG2DC1  CG2D1O   OG311     5  1.2450000e+02  4.6860800e+02  0.0000000e+00  0.0000000e+00
 CG2DC1   CG2O5  CG2R61     5  1.1720000e+02  3.3472000e+02  0.0000000e+00  0.0000000e+00
 CG2DC1   CG2O5   OG2D3     5  1.2180000e+02  5.8576000e+02  0.0000000e+00  0.0000000e+00
 CG2DC1   CG321    HGA2     5  1.1150000e+02  3.7656000e+02  0.0000000e+00  0.0000000e+00
  CG2O5  CG2D1O   OG311     5  1.1188000e+02  5.7412848e+02  0.0000000e+00  0.0000000e+00
  CG2O5  CG2DC1   CG321     5  1.2350000e+02  5.4392000e+02  0.0000000e+00  0.0000000e+00
  CG2O5  CG2R61  CG2R61     5  1.2000000e+02  3.7656000e+02  0.0000000e+00  0.0000000e+00
 CG2R61   CG2O5   OG2D3     5  1.2130000e+02  5.8576000e+02  0.0000000e+00  0.0000000e+00
 CG2R61  CG2R61  CG2R61     5  1.2000000e+02  3.3472000e+02  2.4162000e-01  2.9288000e+04
 CG2R61  CG2R61   CG331     5  1.2000000e+02  3.8325440e+02  0.0000000e+00  0.0000000e+00
 CG2R61  CG2R61   HGR61     5  1.2000000e+02  2.5104000e+02  2.1525000e-01  1.8409600e+04
 CG2R61   CG331    HGA3     5  1.0750000e+02  4.1254240e+02  0.0000000e+00  0.0000000e+00
  CG321   CG2D1    HGA4     5  1.1600000e+02  3.3472000e+02  0.0000000e+00  0.0000000e+00
  CG331   CG2D1   CG331     5  1.1900000e+02  4.6024000e+02  0.0000000e+00  0.0000000e+00
   HGA2   CG321    HGA2     5  1.0900000e+02  2.9706400e+02  1.8020000e-01  4.5187200e+03
   HGA3   CG331    HGA3     5  1.0840000e+02  2.9706400e+02  1.8020000e-01  4.5187200e+03

[ dihedraltypes ]
  CG2D1   CG2D1   CG321  CG2DC1     9  1.800000e+02  4.184000e+00      1
  CG2D1   CG2D1   CG321  CG2DC1     9  0.000000e+00  4.184000e-01      2
  CG2D1   CG2D1   CG321  CG2DC1     9  1.800000e+02  1.255200e+00      3
  CG2D1   CG2D1   CG321  CG2DC1     9  0.000000e+00  8.368000e-01      4
  CG2D1   CG2D1   CG321    HGA2     9  1.800000e+02  1.255200e+00      3
  CG2D1   CG2D1   CG331    HGA3     9  1.800000e+02  1.255200e+00      3
 CG2D1O  CG2DC1   CG2O5  CG2R61     9  0.000000e+00  3.054320e+00      2
 CG2D1O  CG2DC1   CG2O5   OG2D3     9  1.800000e+02  5.857600e+00      2
 CG2D1O  CG2DC1   CG321   CG2D1     9  1.800000e+02  0.000000e+00      3
 CG2D1O  CG2DC1   CG321    HGA2     9  1.800000e+02  0.000000e+00      3
 CG2D1O   CG2O5  CG2R61  CG2R61     9  0.000000e+00  1.673600e-01      2
 CG2DC1  CG2D1O   CG2O5  CG2R61     9  1.800000e+02  1.221728e+01      2
 CG2DC1  CG2D1O   CG2O5   OG2D3     9  1.800000e+02  1.656864e-01      2
 CG2DC1  CG2D1O   OG311    HGP1     9  1.800000e+02  2.704119e+00      1
 CG2DC1  CG2D1O   OG311    HGP1     9  1.800000e+02  1.427581e+01      2
 CG2DC1  CG2D1O   OG311    HGP1     9  1.800000e+02  4.184000e-04      3
 CG2DC1   CG2O5  CG2R61  CG2R61     9  1.800000e+02  6.631640e+00      2
  CG2O5  CG2D1O  CG2DC1   CG2O5     9  1.800000e+02  2.345132e+00      1
  CG2O5  CG2D1O  CG2DC1   CG2O5     9  1.800000e+02  8.368000e+00      2
  CG2O5  CG2D1O  CG2DC1   CG321     9  1.800000e+02  3.297829e+00      1
  CG2O5  CG2D1O  CG2DC1   CG321     9  1.800000e+02  2.896876e+01      2
  CG2O5  CG2D1O   OG311    HGP1     9  1.800000e+02  8.606488e+00      1
  CG2O5  CG2D1O   OG311    HGP1     9  1.800000e+02  6.468464e+00      2
  CG2O5  CG2D1O   OG311    HGP1     9  1.800000e+02  1.732594e+00      3
  CG2O5  CG2D1O   OG311    HGP1     9  1.800000e+02  4.225840e-02      6
  CG2O5  CG2DC1   CG321   CG2D1     9  0.000000e+00  0.000000e+00      3
  CG2O5  CG2DC1   CG321    HGA2     9  0.000000e+00  0.000000e+00      3
  CG2O5  CG2R61  CG2R61   CG2O5     9  0.000000e+00  1.464400e+00      2
  CG2O5  CG2R61  CG2R61  CG2R61     9  1.800000e+02  1.297040e+01      2
  CG2O5  CG2R61  CG2R61   HGR61     9  1.800000e+02  1.004160e+01      2
 CG2R61  CG2R61  CG2R61  CG2R61     9  1.800000e+02  1.297040e+01      2
 CG2R61  CG2R61  CG2R61   CG331     9  1.800000e+02  1.297040e+01      2
 CG2R61  CG2R61  CG2R61   HGR61     9  1.800000e+02  1.757280e+01      2
 CG2R61  CG2R61   CG331    HGA3     9  0.000000e+00  8.368000e-03      6
  CG321   CG2D1   CG2D1   CG331     9  1.800000e+02  1.882800e+00      1
  CG321   CG2D1   CG2D1   CG331     9  1.800000e+02  3.556400e+01      2
  CG321  CG2DC1   CG2O5  CG2R61     9  1.800000e+02  5.020800e-03      2
  CG321  CG2DC1   CG2O5   OG2D3     9  1.800000e+02  3.782754e+00      2
  CG331   CG2D1   CG2D1    HGA4     9  1.800000e+02  4.184000e+00      2
  CG331   CG2D1   CG331    HGA3     9  0.000000e+00  6.694400e-01      3
  CG331  CG2R61  CG2R61   CG331     9  1.800000e+02  1.004160e+01      2
  CG331  CG2R61  CG2R61   HGR61     9  1.800000e+02  1.004160e+01      2
   HGA4   CG2D1   CG321  CG2DC1     9  0.000000e+00  0.000000e+00      3
   HGA4   CG2D1   CG321    HGA2     9  0.000000e+00  0.000000e+00      3
  HGR61  CG2R61  CG2R61   HGR61     9  1.800000e+02  1.004160e+01      2
  OG2D3   CG2O5  CG2R61  CG2R61     9  1.800000e+02  6.631640e+00      2
  OG311  CG2D1O  CG2DC1   CG2O5     9  1.800000e+02  6.283531e+00      1
  OG311  CG2D1O  CG2DC1   CG2O5     9  1.800000e+02  3.085072e+01      2
  OG311  CG2D1O  CG2DC1   CG321     9  1.800000e+02  4.409936e+01      2
  OG311  CG2D1O   CG2O5  CG2R61     9  0.000000e+00  3.765600e-01      2
  OG311  CG2D1O   CG2O5   OG2D3     9  1.800000e+02  6.204454e+00      2
  CG2O5  CG2D1O  CG2R61   OG2D3     2  0.000000e+00  4.778128e+02
  CG2O5  CG2DC1  CG2R61   OG2D3     2  0.000000e+00  6.024960e+02

